       N       E                     dE             d eps       ncg     rms          ort
SDA:   1    -0.193508785315E+02   -0.19351E+02    0.00000E+00  2176   0.912E-01 0.000E+00
CGA:   2    -0.194118612111E+02   -0.60983E-01   -0.58027E-01  2176   0.370E-01 0.762E-02
CGA:   3    -0.194290189107E+02   -0.17158E-01   -0.16808E-01  2176   0.120E-01 0.159E-02
CGA:   4    -0.194347027269E+02   -0.56838E-02   -0.56569E-02  2176   0.133E-02 0.109E-03
CGA:   5    -0.194352347831E+02   -0.53206E-03   -0.52820E-03  2176   0.172E-03 0.253E-04
CGA:   6    -0.194353168103E+02   -0.82027E-04   -0.82579E-04  2176   0.498E-04-0.256E-05
CGA:   7    -0.194353363296E+02   -0.19519E-04   -0.18966E-04  2176   0.823E-05 0.446E-05
CGA:   8    -0.194353413913E+02   -0.50617E-05   -0.52326E-05  2176   0.244E-05-0.586E-06
CGA:   9    -0.194353420475E+02   -0.65616E-06   -0.65323E-06  2176   0.411E-06 0.601E-06
CGA:  10    -0.194353421801E+02   -0.13262E-06   -0.13551E-06  2176   0.972E-07 0.146E-06
CGA:  11    -0.194353422188E+02   -0.38664E-07   -0.10442E-06  2176   0.205E-06-0.132E-06
CGA:  12    -0.194353422507E+02   -0.31891E-07   -0.40364E-07  2176   0.381E-07 0.762E-07
CGA:  13    -0.194353422599E+02   -0.92350E-08   -0.10751E-07  2176   0.777E-08 0.153E-07
   1 F= -.19435342E+02 E0= -.19435342E+02  d E =0.000000E+00
