       N       E                     dE             d eps       ncg     rms          rms(c)
NONE   1    -0.755421539585E+02   -0.75542E+02    0.00000E+00     0   0.000E+00    0.287E-14
NONE   2    -0.755421539585E+02    0.18190E-10    0.00000E+00     0   0.000E+00
   1 F= -.75542154E+02 E0= -.75542154E+02  d E =0.000000E+00
