 vasp.5.4.1 24Jun15 (build Feb 06 2016 13:21:38) complex                        
  
 executed on             IFC_2016 date 2016.10.30  10:47:40
 running on   32 total cores
 distrk:  each k-point on    8 cores,    4 groups
 distr:  one band on NCORES_PER_BAND=   1 cores,    8 groups


--------------------------------------------------------------------------------------------------------


 INCAR:
 POTCAR:   PAW_PBE Sn_d 06Sep2000                 
 POTCAR:    PAW_PBE S 17Jan2003                   

 ----------------------------------------------------------------------------- 
|                                                                             |
|           W    W    AA    RRRRR   N    N  II  N    N   GGGG   !!!           |
|           W    W   A  A   R    R  NN   N  II  NN   N  G    G  !!!           |
|           W    W  A    A  R    R  N N  N  II  N N  N  G       !!!           |
|           W WW W  AAAAAA  RRRRR   N  N N  II  N  N N  G  GGG   !            |
|           WW  WW  A    A  R   R   N   NN  II  N   NN  G    G                |
|           W    W  A    A  R    R  N    N  II  N    N   GGGG   !!!           |
|                                                                             |
|      For optimal performance we recommend to set                            |
|        NCORE= 4 - approx SQRT( number of cores)                             |
|      NCORE specifies how many cores store one orbital (NPAR=cpu/NCORE).     |
|      This setting can  greatly improve the performance of VASP for DFT.     |
|      The default, NPAR=number of cores might be grossly inefficient         |
|      on modern multi-core architectures or massively parallel machines.     |
|      Do your own testing !!!!                                               |
|      Unfortunately you need to use the default for GW and RPA calculations. |
|      (for HF NCORE is supported but not extensively tested yet)             |
|                                                                             |
 ----------------------------------------------------------------------------- 


 ----------------------------------------------------------------------------- 
|                                                                             |
|           W    W    AA    RRRRR   N    N  II  N    N   GGGG   !!!           |
|           W    W   A  A   R    R  NN   N  II  NN   N  G    G  !!!           |
|           W    W  A    A  R    R  N N  N  II  N N  N  G       !!!           |
|           W WW W  AAAAAA  RRRRR   N  N N  II  N  N N  G  GGG   !            |
|           WW  WW  A    A  R   R   N   NN  II  N   NN  G    G                |
|           W    W  A    A  R    R  N    N  II  N    N   GGGG   !!!           |
|                                                                             |
|      You have enabled k-point parallelism (KPAR>1).                         |
|      This developmental code was originally  written by Paul Kent at ORNL,  |
|      and carefully double checked in Vienna.                                |
|      GW as well as linear response parallelism added by Martijn Marsman     |
|      and Georg Kresse.                                                      |
|      Carefully verify results versus KPAR=1.                                |
|      Report problems to Paul Kent and Vienna.                               |
|                                                                             |
 ----------------------------------------------------------------------------- 

 POTCAR:   PAW_PBE Sn_d 06Sep2000                 
   VRHFIN =Sn: s2p2                                                             
   LEXCH  = PE                                                                  
   EATOM  =  1893.0782 eV,  139.1373 Ry                                         
                                                                                
   TITEL  = PAW_PBE Sn_d 06Sep2000                                              
   LULTRA =        F    use ultrasoft PP ?                                      
   IUNSCR =        1    unscreen: 0-lin 1-nonlin 2-no                           
   RPACOR =    2.300    partial core radius                                     
   POMASS =  118.710; ZVAL   =   14.000    mass and valenz                      
   RCORE  =    2.500    outmost cutoff radius                                   
   RWIGS  =    2.960; RWIGS  =    1.566    wigner-seitz radius (au A)           
   ENMAX  =  241.090; ENMIN  =  180.817 eV                                      
   ICORE  =        3    local potential                                         
   LCOR   =        T    correct aug charges                                     
   LPAW   =        T    paw PP                                                  
   EAUG   =  439.825                                                            
   DEXC   =    -.001                                                            
   RMAX   =    2.969    core radius for proj-oper                               
   RAUG   =    1.300    factor for augmentation sphere                          
   RDEP   =    2.659    radius for radial grids                                 
   QCUT   =   -4.209; QGAM   =    8.419    optimization parameters              
                                                                                
   Description                                                                  
     l     E      TYP  RCUT    TYP  RCUT                                        
     2   .000     23  2.500                                                     
     2  -.400     23  2.500                                                     
     0   .000     23  2.500                                                     
     0  1.000     23  2.500                                                     
     1   .000     23  2.500                                                     
     1   .000     23  2.500                                                     
     3  -.100      7  2.500                                                     
  local pseudopotential read in
  partial core-charges read in
  atomic valenz-charges read in
  non local Contribution for L=           2  read in
    real space projection operators read in
  non local Contribution for L=           2  read in
    real space projection operators read in
  non local Contribution for L=           0  read in
    real space projection operators read in
  non local Contribution for L=           0  read in
    real space projection operators read in
  non local Contribution for L=           1  read in
    real space projection operators read in
  non local Contribution for L=           1  read in
    real space projection operators read in
    PAW grid and wavefunctions read in
 
   number of l-projection  operators is LMAX  =           6
   number of lm-projection operators is LMMAX =          18
 
 POTCAR:    PAW_PBE S 17Jan2003                   
   VRHFIN =S : s2p4                                                             
   LEXCH  = PE                                                                  
   EATOM  =   276.8230 eV,   20.3459 Ry                                         
                                                                                
   TITEL  = PAW_PBE S 17Jan2003                                                 
   LULTRA =        F    use ultrasoft PP ?                                      
   IUNSCR =        1    unscreen: 0-lin 1-nonlin 2-no                           
   RPACOR =    1.500    partial core radius                                     
   POMASS =   32.066; ZVAL   =    6.000    mass and valenz                      
   RCORE  =    1.900    outmost cutoff radius                                   
   RWIGS  =    2.200; RWIGS  =    1.164    wigner-seitz radius (au A)           
   ENMAX  =  280.000; ENMIN  =  194.016 eV                                      
   ICORE  =        2    local potential                                         
   LCOR   =        T    correct aug charges                                     
   LPAW   =        T    paw PP                                                  
   EAUG   =  335.092                                                            
   DEXC   =     .000                                                            
   RMAX   =    2.867    core radius for proj-oper                               
   RAUG   =    1.300    factor for augmentation sphere                          
   RDEP   =    1.954    radius for radial grids                                 
   QCUT   =   -4.360; QGAM   =    8.721    optimization parameters              
                                                                                
   Description                                                                  
     l     E      TYP  RCUT    TYP  RCUT                                        
     0   .000     23  1.900                                                     
     0   .000     23  1.900                                                     
     1   .000     23  1.900                                                     
     1   .000     23  1.900                                                     
     2   .000     23  1.900                                                     
  local pseudopotential read in
  partial core-charges read in
  atomic valenz-charges read in
  non local Contribution for L=           0  read in
    real space projection operators read in
  non local Contribution for L=           0  read in
    real space projection operators read in
  non local Contribution for L=           1  read in
    real space projection operators read in
  non local Contribution for L=           1  read in
    real space projection operators read in
    PAW grid and wavefunctions read in
 
   number of l-projection  operators is LMAX  =           4
   number of lm-projection operators is LMMAX =           8
 
 PAW_PBE Sn_d 06Sep2000                 :
 energy of atom  1       EATOM=-1893.0782
 kinetic energy error for atom=    0.0047 (will be added to EATOM!!)
  PAW_PBE S 17Jan2003                   :
 energy of atom  2       EATOM= -276.8230
 kinetic energy error for atom=    0.0046 (will be added to EATOM!!)
 
 
 POSCAR: SnS2                                    
  positions in direct lattice
  velocities in cartesian coordinates
 exchange correlation table for  LEXCH =        8
   RHO(1)=    0.500       N(1)  =     2000
   RHO(2)=  100.500       N(2)  =     4000
 


--------------------------------------------------------------------------------------------------------


 ion  position               nearest neighbor table
   1  0.000  0.000  0.000-   3 2.57   2 2.57   3 2.57   3 2.57   2 2.57   2 2.57
   2  0.333  0.667  0.245-   1 2.57   1 2.57   1 2.57
   3  0.667  0.333  0.755-   1 2.57   1 2.57   1 2.57
 
  LATTYP: Found a hexagonal cell.
 ALAT       =     3.6510002172
 C/A-ratio  =     1.6474937393
  
  Lattice vectors:
  
 A1 = (   3.6510000000,   0.0000000000,   0.0000000000)
 A2 = (  -1.8255000000,   3.1618590000,   0.0000000000)
 A3 = (   0.0000000000,   0.0000000000,   6.0150000000)


Analysis of symmetry for initial positions (statically):
=====================================================================
 Subroutine PRICEL returns:
 Original cell was already a primitive cell.
 

 Routine SETGRP: Setting up the symmetry group for a 
 hexagonal supercell.


 Subroutine GETGRP returns: Found 12 space group operations
 (whereof 12 operations were pure point group operations)
 out of a pool of 24 trial point group operations.


The static configuration has the point symmetry D_3d.


Analysis of symmetry for dynamics (positions and initial velocities):
=====================================================================
 Subroutine PRICEL returns:
 Original cell was already a primitive cell.
 

 Routine SETGRP: Setting up the symmetry group for a 
 hexagonal supercell.


 Subroutine GETGRP returns: Found 12 space group operations
 (whereof 12 operations were pure point group operations)
 out of a pool of 24 trial point group operations.


The dynamic configuration has the point symmetry D_3d.


 Subroutine INISYM returns: Found 12 space group operations
 (whereof 12 operations are pure point group operations),
 and found     1 'primitive' translations

 
 
 KPOINTS: Automatic 6x6x6                         

Automatic generation of k-mesh.
Space group operators:
 irot       det(A)        alpha          n_x          n_y          n_z        tau_x        tau_y        tau_z
    1     1.000000     0.000000     1.000000     0.000000     0.000000     0.000000     0.000000     0.000000
    2    -1.000000     0.000000     1.000000     0.000000     0.000000     0.000000     0.000000     0.000000
    3     1.000000   120.000000     0.000000     0.000000    -1.000000     0.000000     0.000000     0.000000
    4    -1.000000   120.000000     0.000000     0.000000    -1.000000     0.000000     0.000000     0.000000
    5     1.000000   120.000000     0.000000     0.000000     1.000000     0.000000     0.000000     0.000000
    6    -1.000000   120.000000     0.000000     0.000000     1.000000     0.000000     0.000000     0.000000
    7     1.000000   180.000000     1.000000     0.000000     0.000000     0.000000     0.000000     0.000000
    8    -1.000000   180.000000     1.000000     0.000000     0.000000     0.000000     0.000000     0.000000
    9     1.000000   180.000000     0.500000    -0.866025     0.000000     0.000000     0.000000     0.000000
   10    -1.000000   180.000000     0.500000    -0.866025     0.000000     0.000000     0.000000     0.000000
   11     1.000000   180.000000    -0.500000    -0.866025     0.000000     0.000000     0.000000     0.000000
   12    -1.000000   180.000000    -0.500000    -0.866025     0.000000     0.000000     0.000000     0.000000
 
 Subroutine IBZKPT returns following result:
 ===========================================
 
 Found     34 irreducible k-points:
 
 Following reciprocal coordinates:
            Coordinates               Weight
  0.000000  0.000000  0.000000      1.000000
  0.166667 -0.000000  0.000000      6.000000
  0.333333  0.000000  0.000000      6.000000
  0.500000 -0.000000  0.000000      3.000000
  0.166667  0.166667  0.000000      6.000000
  0.333333  0.166667  0.000000     12.000000
  0.333333  0.333333  0.000000      2.000000
  0.000000  0.000000  0.166667      2.000000
  0.166667 -0.000000  0.166667      6.000000
  0.333333  0.000000  0.166667      6.000000
  0.500000 -0.000000  0.166667      6.000000
 -0.333333 -0.000000  0.166667      6.000000
 -0.166667  0.000000  0.166667      6.000000
  0.166667  0.166667  0.166667     12.000000
  0.333333  0.166667  0.166667     12.000000
  0.500000  0.166667  0.166667     12.000000
  0.333333  0.333333  0.166667      4.000000
  0.000000  0.000000  0.333333      2.000000
  0.166667 -0.000000  0.333333      6.000000
  0.333333  0.000000  0.333333      6.000000
  0.500000 -0.000000  0.333333      6.000000
 -0.333333 -0.000000  0.333333      6.000000
 -0.166667  0.000000  0.333333      6.000000
  0.166667  0.166667  0.333333     12.000000
  0.333333  0.166667  0.333333     12.000000
  0.500000  0.166667  0.333333     12.000000
  0.333333  0.333333  0.333333      4.000000
  0.000000  0.000000  0.500000      1.000000
  0.166667 -0.000000  0.500000      6.000000
  0.333333  0.000000  0.500000      6.000000
  0.500000 -0.000000  0.500000      3.000000
  0.166667  0.166667  0.500000      6.000000
  0.333333  0.166667  0.500000     12.000000
  0.333333  0.333333  0.500000      2.000000
 
 Following cartesian coordinates:
            Coordinates               Weight
  0.000000  0.000000  0.000000      1.000000
  0.045650  0.026356  0.000000      6.000000
  0.091299  0.052712  0.000000      6.000000
  0.136949  0.079067  0.000000      3.000000
  0.045650  0.079067  0.000000      6.000000
  0.091299  0.105423  0.000000     12.000000
  0.091299  0.158135  0.000000      2.000000
  0.000000  0.000000  0.027709      2.000000
  0.045650  0.026356  0.027709      6.000000
  0.091299  0.052712  0.027709      6.000000
  0.136949  0.079067  0.027709      6.000000
 -0.091299 -0.052712  0.027709      6.000000
 -0.045650 -0.026356  0.027709      6.000000
  0.045650  0.079067  0.027709     12.000000
  0.091299  0.105423  0.027709     12.000000
  0.136949  0.131779  0.027709     12.000000
  0.091299  0.158135  0.027709      4.000000
  0.000000  0.000000  0.055417      2.000000
  0.045650  0.026356  0.055417      6.000000
  0.091299  0.052712  0.055417      6.000000
  0.136949  0.079067  0.055417      6.000000
 -0.091299 -0.052712  0.055417      6.000000
 -0.045650 -0.026356  0.055417      6.000000
  0.045650  0.079067  0.055417     12.000000
  0.091299  0.105423  0.055417     12.000000
  0.136949  0.131779  0.055417     12.000000
  0.091299  0.158135  0.055417      4.000000
  0.000000  0.000000  0.083126      1.000000
  0.045650  0.026356  0.083126      6.000000
  0.091299  0.052712  0.083126      6.000000
  0.136949  0.079067  0.083126      3.000000
  0.045650  0.079067  0.083126      6.000000
  0.091299  0.105423  0.083126     12.000000
  0.091299  0.158135  0.083126      2.000000
 
 TETIRR: Found    281 inequivalent tetrahedra from     1296
 
 Subroutine IBZKPT_HF returns following result:
 ==============================================
 
 Found    216 k-points in 1st BZ
 the following    216 k-points will be used (e.g. in the exchange kernel)
 Following reciprocal coordinates:   # in IRBZ
  0.000000  0.000000  0.000000    0.00462963   1 t-inv F
  0.166667 -0.000000  0.000000    0.00462963   2 t-inv F
  0.333333  0.000000  0.000000    0.00462963   3 t-inv F
  0.500000 -0.000000  0.000000    0.00462963   4 t-inv F
  0.166667  0.166667  0.000000    0.00462963   5 t-inv F
  0.333333  0.166667  0.000000    0.00462963   6 t-inv F
  0.333333  0.333333  0.000000    0.00462963   7 t-inv F
  0.000000  0.000000  0.166667    0.00462963   8 t-inv F
  0.166667 -0.000000  0.166667    0.00462963   9 t-inv F
  0.333333  0.000000  0.166667    0.00462963  10 t-inv F
  0.500000 -0.000000  0.166667    0.00462963  11 t-inv F
 -0.333333 -0.000000  0.166667    0.00462963  12 t-inv F
 -0.166667  0.000000  0.166667    0.00462963  13 t-inv F
  0.166667  0.166667  0.166667    0.00462963  14 t-inv F
  0.333333  0.166667  0.166667    0.00462963  15 t-inv F
  0.500000  0.166667  0.166667    0.00462963  16 t-inv F
  0.333333  0.333333  0.166667    0.00462963  17 t-inv F
  0.000000  0.000000  0.333333    0.00462963  18 t-inv F
  0.166667 -0.000000  0.333333    0.00462963  19 t-inv F
  0.333333  0.000000  0.333333    0.00462963  20 t-inv F
  0.500000 -0.000000  0.333333    0.00462963  21 t-inv F
 -0.333333 -0.000000  0.333333    0.00462963  22 t-inv F
 -0.166667  0.000000  0.333333    0.00462963  23 t-inv F
  0.166667  0.166667  0.333333    0.00462963  24 t-inv F
  0.333333  0.166667  0.333333    0.00462963  25 t-inv F
  0.500000  0.166667  0.333333    0.00462963  26 t-inv F
  0.333333  0.333333  0.333333    0.00462963  27 t-inv F
  0.000000  0.000000  0.500000    0.00462963  28 t-inv F
  0.166667 -0.000000  0.500000    0.00462963  29 t-inv F
  0.333333  0.000000  0.500000    0.00462963  30 t-inv F
  0.500000 -0.000000  0.500000    0.00462963  31 t-inv F
  0.166667  0.166667  0.500000    0.00462963  32 t-inv F
  0.333333  0.166667  0.500000    0.00462963  33 t-inv F
  0.333333  0.333333  0.500000    0.00462963  34 t-inv F
 -0.166667  0.000000  0.000000    0.00462963   2 t-inv F
 -0.166667  0.166667  0.000000    0.00462963   2 t-inv F
  0.166667 -0.166667  0.000000    0.00462963   2 t-inv F
 -0.000000 -0.166667  0.000000    0.00462963   2 t-inv F
  0.000000  0.166667  0.000000    0.00462963   2 t-inv F
 -0.333333 -0.000000  0.000000    0.00462963   3 t-inv F
 -0.333333  0.333333  0.000000    0.00462963   3 t-inv F
  0.333333 -0.333333  0.000000    0.00462963   3 t-inv F
  0.000000 -0.333333  0.000000    0.00462963   3 t-inv F
 -0.000000  0.333333  0.000000    0.00462963   3 t-inv F
 -0.500000  0.500000  0.000000    0.00462963   4 t-inv F
 -0.000000 -0.500000  0.000000    0.00462963   4 t-inv F
 -0.166667 -0.166667  0.000000    0.00462963   5 t-inv F
 -0.333333  0.166667  0.000000    0.00462963   5 t-inv F
  0.333333 -0.166667  0.000000    0.00462963   5 t-inv F
  0.166667 -0.333333  0.000000    0.00462963   5 t-inv F
 -0.166667  0.333333  0.000000    0.00462963   5 t-inv F
 -0.333333 -0.166667  0.000000    0.00462963   6 t-inv F
 -0.500000  0.333333  0.000000    0.00462963   6 t-inv F
  0.500000 -0.333333  0.000000    0.00462963   6 t-inv F
  0.166667 -0.500000  0.000000    0.00462963   6 t-inv F
 -0.166667  0.500000  0.000000    0.00462963   6 t-inv F
  0.333333 -0.500000  0.000000    0.00462963   6 t-inv F
 -0.333333  0.500000  0.000000    0.00462963   6 t-inv F
 -0.500000  0.166667  0.000000    0.00462963   6 t-inv F
  0.500000 -0.166667  0.000000    0.00462963   6 t-inv F
  0.166667  0.333333  0.000000    0.00462963   6 t-inv F
 -0.166667 -0.333333  0.000000    0.00462963   6 t-inv F
 -0.333333 -0.333333  0.000000    0.00462963   7 t-inv F
  0.000000  0.000000 -0.166667    0.00462963   8 t-inv F
 -0.166667  0.000000 -0.166667    0.00462963   9 t-inv F
 -0.166667  0.166667  0.166667    0.00462963   9 t-inv F
  0.166667 -0.166667 -0.166667    0.00462963   9 t-inv F
 -0.000000 -0.166667  0.166667    0.00462963   9 t-inv F
  0.000000  0.166667 -0.166667    0.00462963   9 t-inv F
 -0.333333 -0.000000 -0.166667    0.00462963  10 t-inv F
 -0.333333  0.333333  0.166667    0.00462963  10 t-inv F
  0.333333 -0.333333 -0.166667    0.00462963  10 t-inv F
  0.000000 -0.333333  0.166667    0.00462963  10 t-inv F
 -0.000000  0.333333 -0.166667    0.00462963  10 t-inv F
 -0.500000  0.000000 -0.166667    0.00462963  11 t-inv F
 -0.500000  0.500000  0.166667    0.00462963  11 t-inv F
  0.500000 -0.500000 -0.166667    0.00462963  11 t-inv F
 -0.000000 -0.500000  0.166667    0.00462963  11 t-inv F
  0.000000  0.500000 -0.166667    0.00462963  11 t-inv F
  0.333333  0.000000 -0.166667    0.00462963  12 t-inv F
  0.333333 -0.333333  0.166667    0.00462963  12 t-inv F
 -0.333333  0.333333 -0.166667    0.00462963  12 t-inv F
 -0.000000  0.333333  0.166667    0.00462963  12 t-inv F
  0.000000 -0.333333 -0.166667    0.00462963  12 t-inv F
  0.166667 -0.000000 -0.166667    0.00462963  13 t-inv F
  0.166667 -0.166667  0.166667    0.00462963  13 t-inv F
 -0.166667  0.166667 -0.166667    0.00462963  13 t-inv F
  0.000000  0.166667  0.166667    0.00462963  13 t-inv F
 -0.000000 -0.166667 -0.166667    0.00462963  13 t-inv F
 -0.166667 -0.166667 -0.166667    0.00462963  14 t-inv F
 -0.333333  0.166667  0.166667    0.00462963  14 t-inv F
  0.333333 -0.166667 -0.166667    0.00462963  14 t-inv F
  0.166667 -0.333333  0.166667    0.00462963  14 t-inv F
 -0.166667  0.333333 -0.166667    0.00462963  14 t-inv F
  0.166667 -0.333333 -0.166667    0.00462963  14 t-inv F
 -0.166667  0.333333  0.166667    0.00462963  14 t-inv F
 -0.333333  0.166667 -0.166667    0.00462963  14 t-inv F
  0.333333 -0.166667  0.166667    0.00462963  14 t-inv F
  0.166667  0.166667 -0.166667    0.00462963  14 t-inv F
 -0.166667 -0.166667  0.166667    0.00462963  14 t-inv F
 -0.333333 -0.166667 -0.166667    0.00462963  15 t-inv F
 -0.500000  0.333333  0.166667    0.00462963  15 t-inv F
  0.500000 -0.333333 -0.166667    0.00462963  15 t-inv F
  0.166667 -0.500000  0.166667    0.00462963  15 t-inv F
 -0.166667  0.500000 -0.166667    0.00462963  15 t-inv F
  0.333333 -0.500000 -0.166667    0.00462963  15 t-inv F
 -0.333333  0.500000  0.166667    0.00462963  15 t-inv F
 -0.500000  0.166667 -0.166667    0.00462963  15 t-inv F
  0.500000 -0.166667  0.166667    0.00462963  15 t-inv F
  0.166667  0.333333 -0.166667    0.00462963  15 t-inv F
 -0.166667 -0.333333  0.166667    0.00462963  15 t-inv F
 -0.500000 -0.166667 -0.166667    0.00462963  16 t-inv F
 -0.666667  0.500000  0.166667    0.00462963  16 t-inv F
  0.666667 -0.500000 -0.166667    0.00462963  16 t-inv F
  0.166667 -0.666667  0.166667    0.00462963  16 t-inv F
 -0.166667  0.666667 -0.166667    0.00462963  16 t-inv F
  0.500000 -0.666667 -0.166667    0.00462963  16 t-inv F
 -0.500000  0.666667  0.166667    0.00462963  16 t-inv F
 -0.666667  0.166667 -0.166667    0.00462963  16 t-inv F
  0.666667 -0.166667  0.166667    0.00462963  16 t-inv F
  0.166667  0.500000 -0.166667    0.00462963  16 t-inv F
 -0.166667 -0.500000  0.166667    0.00462963  16 t-inv F
 -0.333333 -0.333333 -0.166667    0.00462963  17 t-inv F
  0.333333 -0.666667 -0.166667    0.00462963  17 t-inv F
 -0.333333  0.666667  0.166667    0.00462963  17 t-inv F
  0.000000  0.000000 -0.333333    0.00462963  18 t-inv F
 -0.166667  0.000000 -0.333333    0.00462963  19 t-inv F
 -0.166667  0.166667  0.333333    0.00462963  19 t-inv F
  0.166667 -0.166667 -0.333333    0.00462963  19 t-inv F
 -0.000000 -0.166667  0.333333    0.00462963  19 t-inv F
  0.000000  0.166667 -0.333333    0.00462963  19 t-inv F
 -0.333333 -0.000000 -0.333333    0.00462963  20 t-inv F
 -0.333333  0.333333  0.333333    0.00462963  20 t-inv F
  0.333333 -0.333333 -0.333333    0.00462963  20 t-inv F
  0.000000 -0.333333  0.333333    0.00462963  20 t-inv F
 -0.000000  0.333333 -0.333333    0.00462963  20 t-inv F
 -0.500000  0.000000 -0.333333    0.00462963  21 t-inv F
 -0.500000  0.500000  0.333333    0.00462963  21 t-inv F
  0.500000 -0.500000 -0.333333    0.00462963  21 t-inv F
 -0.000000 -0.500000  0.333333    0.00462963  21 t-inv F
  0.000000  0.500000 -0.333333    0.00462963  21 t-inv F
  0.333333  0.000000 -0.333333    0.00462963  22 t-inv F
  0.333333 -0.333333  0.333333    0.00462963  22 t-inv F
 -0.333333  0.333333 -0.333333    0.00462963  22 t-inv F
 -0.000000  0.333333  0.333333    0.00462963  22 t-inv F
  0.000000 -0.333333 -0.333333    0.00462963  22 t-inv F
  0.166667 -0.000000 -0.333333    0.00462963  23 t-inv F
  0.166667 -0.166667  0.333333    0.00462963  23 t-inv F
 -0.166667  0.166667 -0.333333    0.00462963  23 t-inv F
  0.000000  0.166667  0.333333    0.00462963  23 t-inv F
 -0.000000 -0.166667 -0.333333    0.00462963  23 t-inv F
 -0.166667 -0.166667 -0.333333    0.00462963  24 t-inv F
 -0.333333  0.166667  0.333333    0.00462963  24 t-inv F
  0.333333 -0.166667 -0.333333    0.00462963  24 t-inv F
  0.166667 -0.333333  0.333333    0.00462963  24 t-inv F
 -0.166667  0.333333 -0.333333    0.00462963  24 t-inv F
  0.166667 -0.333333 -0.333333    0.00462963  24 t-inv F
 -0.166667  0.333333  0.333333    0.00462963  24 t-inv F
 -0.333333  0.166667 -0.333333    0.00462963  24 t-inv F
  0.333333 -0.166667  0.333333    0.00462963  24 t-inv F
  0.166667  0.166667 -0.333333    0.00462963  24 t-inv F
 -0.166667 -0.166667  0.333333    0.00462963  24 t-inv F
 -0.333333 -0.166667 -0.333333    0.00462963  25 t-inv F
 -0.500000  0.333333  0.333333    0.00462963  25 t-inv F
  0.500000 -0.333333 -0.333333    0.00462963  25 t-inv F
  0.166667 -0.500000  0.333333    0.00462963  25 t-inv F
 -0.166667  0.500000 -0.333333    0.00462963  25 t-inv F
  0.333333 -0.500000 -0.333333    0.00462963  25 t-inv F
 -0.333333  0.500000  0.333333    0.00462963  25 t-inv F
 -0.500000  0.166667 -0.333333    0.00462963  25 t-inv F
  0.500000 -0.166667  0.333333    0.00462963  25 t-inv F
  0.166667  0.333333 -0.333333    0.00462963  25 t-inv F
 -0.166667 -0.333333  0.333333    0.00462963  25 t-inv F
 -0.500000 -0.166667 -0.333333    0.00462963  26 t-inv F
 -0.666667  0.500000  0.333333    0.00462963  26 t-inv F
  0.666667 -0.500000 -0.333333    0.00462963  26 t-inv F
  0.166667 -0.666667  0.333333    0.00462963  26 t-inv F
 -0.166667  0.666667 -0.333333    0.00462963  26 t-inv F
  0.500000 -0.666667 -0.333333    0.00462963  26 t-inv F
 -0.500000  0.666667  0.333333    0.00462963  26 t-inv F
 -0.666667  0.166667 -0.333333    0.00462963  26 t-inv F
  0.666667 -0.166667  0.333333    0.00462963  26 t-inv F
  0.166667  0.500000 -0.333333    0.00462963  26 t-inv F
 -0.166667 -0.500000  0.333333    0.00462963  26 t-inv F
 -0.333333 -0.333333 -0.333333    0.00462963  27 t-inv F
  0.333333 -0.666667 -0.333333    0.00462963  27 t-inv F
 -0.333333  0.666667  0.333333    0.00462963  27 t-inv F
 -0.166667  0.000000 -0.500000    0.00462963  29 t-inv F
 -0.166667  0.166667  0.500000    0.00462963  29 t-inv F
  0.166667 -0.166667 -0.500000    0.00462963  29 t-inv F
 -0.000000 -0.166667  0.500000    0.00462963  29 t-inv F
  0.000000  0.166667 -0.500000    0.00462963  29 t-inv F
 -0.333333 -0.000000 -0.500000    0.00462963  30 t-inv F
 -0.333333  0.333333  0.500000    0.00462963  30 t-inv F
  0.333333 -0.333333 -0.500000    0.00462963  30 t-inv F
  0.000000 -0.333333  0.500000    0.00462963  30 t-inv F
 -0.000000  0.333333 -0.500000    0.00462963  30 t-inv F
 -0.500000  0.500000  0.500000    0.00462963  31 t-inv F
 -0.000000 -0.500000  0.500000    0.00462963  31 t-inv F
 -0.166667 -0.166667 -0.500000    0.00462963  32 t-inv F
 -0.333333  0.166667  0.500000    0.00462963  32 t-inv F
  0.333333 -0.166667 -0.500000    0.00462963  32 t-inv F
  0.166667 -0.333333  0.500000    0.00462963  32 t-inv F
 -0.166667  0.333333 -0.500000    0.00462963  32 t-inv F
 -0.333333 -0.166667 -0.500000    0.00462963  33 t-inv F
 -0.500000  0.333333  0.500000    0.00462963  33 t-inv F
  0.500000 -0.333333 -0.500000    0.00462963  33 t-inv F
  0.166667 -0.500000  0.500000    0.00462963  33 t-inv F
 -0.166667  0.500000 -0.500000    0.00462963  33 t-inv F
  0.333333 -0.500000 -0.500000    0.00462963  33 t-inv F
 -0.333333  0.500000  0.500000    0.00462963  33 t-inv F
 -0.500000  0.166667 -0.500000    0.00462963  33 t-inv F
  0.500000 -0.166667  0.500000    0.00462963  33 t-inv F
  0.166667  0.333333 -0.500000    0.00462963  33 t-inv F
 -0.166667 -0.333333  0.500000    0.00462963  33 t-inv F
 -0.333333 -0.333333 -0.500000    0.00462963  34 t-inv F


--------------------------------------------------------------------------------------------------------




 Dimension of arrays:
   k-points           NKPTS =     34   k-points in BZ     NKDIM =    216   number of bands    NBANDS=     64
   number of dos      NEDOS =    301   number of ions     NIONS =      3
   non local maximal  LDIM  =      6   non local SUM 2l+1 LMDIM =     18
   total plane-waves  NPLWV =  23040
   max r-space proj   IRMAX =      1   max aug-charges    IRDMAX=  15016
   dimension x,y,z NGX =    24 NGY =   24 NGZ =   40
   dimension x,y,z NGXF=    48 NGYF=   48 NGZF=   80
   support grid    NGXF=    48 NGYF=   48 NGZF=   80
   ions per type =               1   2
 NGX,Y,Z   is equivalent  to a cutoff of  10.93, 10.93, 11.06 a.u.
 NGXF,Y,Z  is equivalent  to a cutoff of  21.86, 21.86, 22.11 a.u.


 I would recommend the setting:
   dimension x,y,z NGX =    24 NGY =   24 NGZ =   39
 SYSTEM =  SnS2                                    
 POSCAR =  SnS2                                    

 Startparameter for this run:
   NWRITE =      2    write-flag & timer
   PREC   = accura    normal or accurate (medium, high low for compatibility)
   ISTART =      1    job   : 0-new  1-cont  2-samecut
   ICHARG =      0    charge: 1-file 2-atom 10-const
   ISPIN  =      1    spin polarized calculation?
   LNONCOLLINEAR =      F non collinear calculations
   LSORBIT =      F    spin-orbit coupling
   INIWAV =      1    electr: 0-lowe 1-rand  2-diag
   LASPH  =      T    aspherical Exc in radial PAW
   METAGGA=      F    non-selfconsistent MetaGGA calc.

 Electronic Relaxation 1
   ENCUT  =  400.0 eV  29.40 Ry    5.42 a.u.   5.95  5.95  9.81*2*pi/ulx,y,z
   ENINI  =  400.0     initial cutoff
   ENAUG  =  439.8 eV  augmentation charge cutoff
   NELM   =     60;   NELMIN=  0; NELMDL=  0     # of ELM steps 
   EDIFF  = 0.1E-07   stopping-criterion for ELM
   LREAL  =      F    real-space projection
   NLSPLINE    = F    spline interpolate recip. space projectors
   LCOMPAT=      F    compatible to vasp.4.4
   GGA_COMPAT  = T    GGA compatible to vasp.4.4-vasp.4.6
   LMAXPAW     = -100 max onsite density
   LMAXMIX     =    2 max onsite mixed and CHGCAR
   VOSKOWN=      0    Vosko Wilk Nusair interpolation
   ROPT   =    0.00000   0.00000
 Ionic relaxation
   EDIFFG = 0.1E-06   stopping-criterion for IOM
   NSW    =      0    number of steps for IOM
   NBLOCK =      1;   KBLOCK =      1    inner block; outer block 
   IBRION =     -1    ionic relax: 0-MD 1-quasi-New 2-CG
   NFREE  =      0    steps in history (QN), initial steepest desc. (CG)
   ISIF   =      2    stress and relaxation
   IWAVPR =     10    prediction:  0-non 1-charg 2-wave 3-comb
   ISYM   =      3    0-nonsym 1-usesym 2-fastsym
   LCORR  =      T    Harris-Foulkes like correction to forces

   POTIM  = 0.5000    time-step for ionic-motion
   TEIN   =    0.0    initial temperature
   TEBEG  =    0.0;   TEEND  =   0.0 temperature during run
   SMASS  =  -3.00    Nose mass-parameter (am)
   estimated Nose-frequenzy (Omega)   =  0.10E-29 period in steps =****** mass=  -0.305E-27a.u.
   SCALEE = 1.0000    scale energy and forces
   NPACO  =    256;   APACO  = 16.0  distance and # of slots for P.C.
   PSTRESS=    0.0 pullay stress

  Mass of Ions in am
   POMASS = 118.71 32.07
  Ionic Valenz
   ZVAL   =  14.00  6.00
  Atomic Wigner-Seitz radii
   RWIGS  =  -1.00 -1.00
  virtual crystal weights 
   VCA    =   1.00  1.00
   NELECT =      26.0000    total number of electrons
   NUPDOWN=      -1.0000    fix difference up-down

 DOS related values:
   EMIN   =  10.00;   EMAX   =-10.00  energy-range for DOS
   EFERMI =   0.00
   ISMEAR =    -5;   SIGMA  =   0.20  broadening in eV -4-tet -1-fermi 0-gaus

 Electronic relaxation 2 (details)
   IALGO  =      2    algorithm
   LDIAG  =      T    sub-space diagonalisation (order eigenvalues)
   LSUBROT=      F    optimize rotation matrix (better conditioning)
   TURBO    =      0    0=normal 1=particle mesh
   IRESTART =      0    0=no restart 2=restart with 2 vectors
   NREBOOT  =      0    no. of reboots
   NMIN     =      0    reboot dimension
   EREF     =   0.00    reference energy to select bands
   IMIX   =      1    mixing-type and parameters
     AMIX     =   0.40;   BMIX     =  1.00
     AMIX_MAG =   1.60;   BMIX_MAG =  1.00
     AMIN     =   0.10
     WC   =   100.;   INIMIX=   1;  MIXPRE=   1;  MAXMIX= -45

 Intra band minimization:
   WEIMIN = 0.0000     energy-eigenvalue tresh-hold
   EBREAK =  0.39E-10  absolut break condition
   DEPER  =   0.30     relativ break condition  

   TIME   =   0.40     timestep for ELM

  volume/ion in A,a.u.               =      23.15       156.19
  Fermi-wavevector in a.u.,A,eV,Ry     =   1.179965  2.229811 18.943643  1.392318
  Thomas-Fermi vector in A             =   2.316267
 
 Write flags
   LWAVE  =      F    write WAVECAR
   LCHARG =      F    write CHGCAR
   LVTOT  =      F    write LOCPOT, total local potential
   LVHAR  =      F    write LOCPOT, Hartree potential only
   LELF   =      F    write electronic localiz. function (ELF)
   LORBIT =      0    0 simple, 1 ext, 2 COOP (PROOUT)


 Dipole corrections
   LMONO  =      F    monopole corrections only (constant potential shift)
   LDIPOL =      F    correct potential (dipole corrections)
   IDIPOL =      0    1-x, 2-y, 3-z, 4-all directions 
   EPSILON=  1.0000000 bulk dielectric constant

 Exchange correlation treatment:
   GGA     =    PE    GGA type
   LEXCH   =     8    internal setting for exchange type
   VOSKOWN=      0    Vosko Wilk Nusair interpolation
   EXXOEP  =     0    0=HF, 1=EXX-LHF (local Hartree Fock) 2=EXX OEP
   LHFCALC =     T    Hartree Fock is set to
   LSYMGRAD=     F    symmetrize gradient (conserves proper symmetry)
   PRECFOCK=normal    Normal, Fast or Accurate (Low or Medium for compatibility)
   LRHFCALC=     F    long range Hartree Fock
   LRSCOR  =     F    long range correlation only (use DFT for short range part)
   LTHOMAS =     F    Thomas Fermi screening in HF
   LMODELHF=     F    short range full HF, long range fraction AEXX
   ENCUT4O =  -1.0   cutoff for four orbital integrals eV
   LMAXFOCK=     4    L truncation for augmentation on plane wave grid
   LMAXFOCKAE=  -1    L truncation for all-electron charge restoration on plane wave grid
   NMAXFOCKAE=   1    number of basis functions for all-electron charge restoration
   LFOCKAEDFT=     F  apply the AE augmentation even for DFT
   NKREDX  =     1    reduce k-point grid by
   NKREDY  =     1    reduce k-point grid by
   NKREDZ  =     1    reduce k-point grid by
   SHIFTRED=     F    shift reduced grid of Gamma
   HFKIDENT=     F    idential grid for each k-point
   ODDONLY =     F    use only odd q-grid points
   EVENONLY=     F    use only even q-grid points
   HFALPHA =   -1.0000 decay constant for conv. correction
   MCALPHA =    0.0000 extent of test-charge in conv. correction in multipole expansion
   AEXX    =    0.2500 exact exchange contribution
   HFSCREEN=    0.2000 screening length (either q_TF or 0.3 A-1)
   HFSCREENC=   0.2000 screening length for correlation (either q_TF or 0.3 A-1)
   HFRCUT  =    0.0000 spherical cutoff for potential kernel
   ALDAX   =    0.7500 LDA exchange part
   AGGAX   =    0.7500 GGA exchange part
   ALDAC   =    1.0000 LDA correlation
   AGGAC   =    1.0000 GGA correlation
   NBANDSGWLOW=     1    first orbital included in HF term
   ENCUTFOCK=  -1.0 apply spherical cutoff to Coloumb kernel
 Linear response parameters
   LEPSILON=     F    determine dielectric tensor
   LRPA    =     F    only Hartree local field effects (RPA)
   LNABLA  =     F    use nabla operator in PAW spheres
   LVEL    =     F    velocity operator in full k-point grid
   LINTERFAST=   F  fast interpolation
   KINTER  =     0    interpolate to denser k-point grid
   CSHIFT  =0.1000    complex shift for real part using Kramers Kronig
   OMEGAMAX=  -1.0    maximum frequency
   DEG_THRESHOLD= 0.2000000E-02 threshold for treating states as degnerate
   RTIME   =    0.100 relaxation time in fs

 Orbital magnetization related:
   ORBITALMAG=     F  switch on orbital magnetization
   LCHIMAG   =     F  perturbation theory with respect to B field
   DQ        =  0.001000  dq finite difference perturbation B field



--------------------------------------------------------------------------------------------------------


 Static calculation
 charge density and potential will be updated during run
 non-spin polarized calculation
 None: do nothing, only one-electron occupancies are recalculated
    band-by band algorithm
 perform Loewdin sub-space diagonalisation
    ordering is kept fixed
    before iterative eigenvector-optimisation
 Kerker-like  mixing scheme
 using additional bands           51
 reciprocal scheme for non local part
 use partial core corrections
 calculate Harris-corrections to forces 
   (improved forces if not selfconsistent)
 use gradient corrections 
 use of overlap-Matrix (Vanderbilt PP)
 Fermi weights with tetrahedron method with Bloechl corrections


--------------------------------------------------------------------------------------------------------


  energy-cutoff  :      400.00
  volume of cell :       69.44
      direct lattice vectors                 reciprocal lattice vectors
     3.651000000  0.000000000  0.000000000     0.273897562  0.158134819  0.000000000
    -1.825500000  3.161859000  0.000000000     0.000000000  0.316269638  0.000000000
     0.000000000  0.000000000  6.015000000     0.000000000  0.000000000  0.166251039

  length of vectors
     3.651000000  3.651000217  6.015000000     0.316269656  0.316269638  0.166251039


 
 old parameters found on file WAVECAR:
  energy-cutoff  :      400.00
  volume of cell :       69.44
      direct lattice vectors                 reciprocal lattice vectors
     3.651000000  0.000000000  0.000000000     0.273897562  0.158134819  0.000000000
    -1.825500000  3.161859000  0.000000000     0.000000000  0.316269638  0.000000000
     0.000000000  0.000000000  6.015000000     0.000000000  0.000000000  0.166251039

  length of vectors

 
 k-points in units of 2pi/SCALE and weight: Automatic 6x6x6                         
   0.00000000  0.00000000  0.00000000       0.005
   0.04564959  0.02635580  0.00000000       0.028
   0.09129919  0.05271161  0.00000000       0.028
   0.13694878  0.07906741  0.00000000       0.014
   0.04564959  0.07906741  0.00000000       0.028
   0.09129919  0.10542321  0.00000000       0.056
   0.09129919  0.15813482  0.00000000       0.009
   0.00000000  0.00000000  0.02770851       0.009
   0.04564959  0.02635580  0.02770851       0.028
   0.09129919  0.05271161  0.02770851       0.028
   0.13694878  0.07906741  0.02770851       0.028
  -0.09129919 -0.05271161  0.02770851       0.028
  -0.04564959 -0.02635580  0.02770851       0.028
   0.04564959  0.07906741  0.02770851       0.056
   0.09129919  0.10542321  0.02770851       0.056
   0.13694878  0.13177902  0.02770851       0.056
   0.09129919  0.15813482  0.02770851       0.019
   0.00000000  0.00000000  0.05541701       0.009
   0.04564959  0.02635580  0.05541701       0.028
   0.09129919  0.05271161  0.05541701       0.028
   0.13694878  0.07906741  0.05541701       0.028
  -0.09129919 -0.05271161  0.05541701       0.028
  -0.04564959 -0.02635580  0.05541701       0.028
   0.04564959  0.07906741  0.05541701       0.056
   0.09129919  0.10542321  0.05541701       0.056
   0.13694878  0.13177902  0.05541701       0.056
   0.09129919  0.15813482  0.05541701       0.019
   0.00000000  0.00000000  0.08312552       0.005
   0.04564959  0.02635580  0.08312552       0.028
   0.09129919  0.05271161  0.08312552       0.028
   0.13694878  0.07906741  0.08312552       0.014
   0.04564959  0.07906741  0.08312552       0.028
   0.09129919  0.10542321  0.08312552       0.056
   0.09129919  0.15813482  0.08312552       0.009
 
 k-points in reciprocal lattice and weights: Automatic 6x6x6                         
   0.00000000  0.00000000  0.00000000       0.005
   0.16666667 -0.00000000  0.00000000       0.028
   0.33333333  0.00000000  0.00000000       0.028
   0.50000000 -0.00000000  0.00000000       0.014
   0.16666667  0.16666667  0.00000000       0.028
   0.33333333  0.16666667  0.00000000       0.056
   0.33333333  0.33333333  0.00000000       0.009
   0.00000000  0.00000000  0.16666667       0.009
   0.16666667 -0.00000000  0.16666667       0.028
   0.33333333  0.00000000  0.16666667       0.028
   0.50000000 -0.00000000  0.16666667       0.028
  -0.33333333 -0.00000000  0.16666667       0.028
  -0.16666667  0.00000000  0.16666667       0.028
   0.16666667  0.16666667  0.16666667       0.056
   0.33333333  0.16666667  0.16666667       0.056
   0.50000000  0.16666667  0.16666667       0.056
   0.33333333  0.33333333  0.16666667       0.019
   0.00000000  0.00000000  0.33333333       0.009
   0.16666667 -0.00000000  0.33333333       0.028
   0.33333333  0.00000000  0.33333333       0.028
   0.50000000 -0.00000000  0.33333333       0.028
  -0.33333333 -0.00000000  0.33333333       0.028
  -0.16666667  0.00000000  0.33333333       0.028
   0.16666667  0.16666667  0.33333333       0.056
   0.33333333  0.16666667  0.33333333       0.056
   0.50000000  0.16666667  0.33333333       0.056
   0.33333333  0.33333333  0.33333333       0.019
   0.00000000  0.00000000  0.50000000       0.005
   0.16666667 -0.00000000  0.50000000       0.028
   0.33333333  0.00000000  0.50000000       0.028
   0.50000000 -0.00000000  0.50000000       0.014
   0.16666667  0.16666667  0.50000000       0.028
   0.33333333  0.16666667  0.50000000       0.056
   0.33333333  0.33333333  0.50000000       0.009
 
 position of ions in fractional coordinates (direct lattice) 
   0.00000000  0.00000000  0.00000000
   0.33333300  0.66666600  0.24520076
   0.66666600  0.33333300  0.75479994
 
 position of ions in cartesian coordinates  (Angst):
   0.00000000  0.00000000  0.00000000
   0.00000000  2.10790389  1.47488259
   1.82549817  1.05395195  4.54012162
 


--------------------------------------------------------------------------------------------------------


 k-point  1 :   0.0000 0.0000 0.0000  plane waves:    1273
 k-point  2 :   0.1667-0.0000 0.0000  plane waves:    1248
 k-point  3 :   0.3333 0.0000 0.0000  plane waves:    1266
 k-point  4 :   0.5000-0.0000 0.0000  plane waves:    1244
 k-point  5 :   0.1667 0.1667 0.0000  plane waves:    1266
 k-point  6 :   0.3333 0.1667 0.0000  plane waves:    1262
 k-point  7 :   0.3333 0.3333 0.0000  plane waves:    1254
 k-point  8 :   0.0000 0.0000 0.1667  plane waves:    1261
 k-point  9 :   0.1667-0.0000 0.1667  plane waves:    1251
 k-point 10 :   0.3333 0.0000 0.1667  plane waves:    1259
 k-point 11 :   0.5000-0.0000 0.1667  plane waves:    1264
 k-point 12 :  -0.3333-0.0000 0.1667  plane waves:    1259
 k-point 13 :  -0.1667 0.0000 0.1667  plane waves:    1251
 k-point 14 :   0.1667 0.1667 0.1667  plane waves:    1262
 k-point 15 :   0.3333 0.1667 0.1667  plane waves:    1265
 k-point 16 :   0.5000 0.1667 0.1667  plane waves:    1265
 k-point 17 :   0.3333 0.3333 0.1667  plane waves:    1266
 k-point 18 :   0.0000 0.0000 0.3333  plane waves:    1232
 k-point 19 :   0.1667-0.0000 0.3333  plane waves:    1247
 k-point 20 :   0.3333 0.0000 0.3333  plane waves:    1257
 k-point 21 :   0.5000-0.0000 0.3333  plane waves:    1274
 k-point 22 :  -0.3333-0.0000 0.3333  plane waves:    1257
 k-point 23 :  -0.1667 0.0000 0.3333  plane waves:    1247
 k-point 24 :   0.1667 0.1667 0.3333  plane waves:    1255
 k-point 25 :   0.3333 0.1667 0.3333  plane waves:    1271
 k-point 26 :   0.5000 0.1667 0.3333  plane waves:    1271
 k-point 27 :   0.3333 0.3333 0.3333  plane waves:    1284
 k-point 28 :   0.0000 0.0000 0.5000  plane waves:    1208
 k-point 29 :   0.1667-0.0000 0.5000  plane waves:    1256
 k-point 30 :   0.3333 0.0000 0.5000  plane waves:    1260
 k-point 31 :   0.5000-0.0000 0.5000  plane waves:    1260
 k-point 32 :   0.1667 0.1667 0.5000  plane waves:    1264
 k-point 33 :   0.3333 0.1667 0.5000  plane waves:    1264
 k-point 34 :   0.3333 0.3333 0.5000  plane waves:    1290

 maximum and minimum number of plane-waves per node :      1290     1208

 maximum number of plane-waves:      1290
 maximum index in each direction: 
   IXMAX=    6   IYMAX=    5   IZMAX=    9
   IXMIN=   -6   IYMIN=   -6   IZMIN=  -10

 WARNING: aliasing errors must be expected set NGX to  26 to avoid them
 NGY is ok and might be reduce to  24
 NGZ is ok and might be reduce to  40
 aliasing errors are usually negligible using standard VASP settings
 and one can safely disregard these warnings

 serial   3D FFT for wavefunctions
 parallel 3D FFT for charge:
    minimum data exchange during FFTs selected (reduces bandwidth)


 FFT grid for exact exchange (Hartree Fock) 
  NGX = 18; NGY = 18; NGZ = 30

 
 Radii for the augmentation spheres in the non-local exchange
 for species   1 augmentation radius   1.362 (default was   1.089)
       energy cutoff for augmentation   1600.0
 for species   2 augmentation radius   1.034 (default was   0.970)
       energy cutoff for augmentation   1600.0
 Maximum index for augmentation-charges in exchange         1483
  SETUP_FOCK is finished

 total amount of memory used by VASP on root node    52377. kBytes
========================================================================

   base      :      30000. kBytes
   nonl-proj :      12752. kBytes
   fftplans  :        884. kBytes
   grid      :       2244. kBytes
   one-center:         46. kBytes
   HF        :        129. kBytes
   nonlr-proj:        508. kBytes
   wavefun   :       5814. kBytes
 
     INWAV:  cpu time    1.3000: real time    1.3037
 charge density for first step will be calculated from the start-wavefunctions


--------------------------------------------------------------------------------------------------------


 Maximum index for augmentation-charges         1753 (set IRDMAX)


--------------------------------------------------------------------------------------------------------


 initial charge from wavefunction
 First call to EWALD:  gamma=   0.431
 Maximum number of real-space cells 3x 3x 2
 Maximum number of reciprocal cells 2x 2x 4

 FEWALD executed in parallel
    FEWALD:  cpu time    0.0000: real time    0.0020


----------------------------------------- Iteration    1(   1)  ---------------------------------------


    POTLOK:  cpu time    0.1400: real time    0.1389
    SETDIJ:  cpu time    0.7960: real time    0.7986
    EDDIAG:  cpu time    0.0000: real time    0.0000
 BZINTS: Fermi energy:  3.790155; 26.000000 electrons
         Band energy:-215.945303;  BLOECHL correction:  0.000000
       DOS:  cpu time    0.0080: real time    0.0074
    CHARGE:  cpu time    0.0680: real time    0.0674
    MIXING:  cpu time    0.0000: real time    0.0004
    --------------------------------------------
      LOOP:  cpu time    1.0120: real time    1.0157

 eigenvalue-minimisations  :     0
 total energy-change (2. order) :-0.7554215E+02  ( 0.0000000E+00)
 number of electron      26.0000001 magnetization 
 augmentation part        5.9317102 magnetization 

 Free energy of the ion-electron system (eV)
  ---------------------------------------------------
  alpha Z        PSCENC =        48.70772351
  Ewald energy   TEWEN  =     -1558.36934594
  -Hartree energ DENC   =      -828.69926617
  -exchange      EXHF   =         0.00000000
  -V(xc)+E(xc)   XCENC  =        62.62201040
  PAW double counting   =      1640.56202438    -1663.93739208
  entropy T*S    EENTRO =         0.00000000
  eigenvalues    EBANDS =      -215.94530335
  atomic energy  EATOM  =      2439.51739529
  Solvation  Ediel_sol  =         0.00000000
  ---------------------------------------------------
  free energy    TOTEN  =       -75.54215396 eV

  energy without entropy =      -75.54215396  energy(sigma->0) =      -75.54215396
  exchange ACFDT corr.  =         0.00000000  see jH, gK, PRB 81, 115126


--------------------------------------------------------------------------------------------------------




----------------------------------------- Iteration    1(   2)  ---------------------------------------


    POTLOK:  cpu time    0.1400: real time    0.1369
    SETDIJ:  cpu time    0.7960: real time    0.7965
    EDDIAG:  cpu time    0.0000: real time    0.0000
 BZINTS: Fermi energy:  3.790155; 26.000000 electrons
         Band energy:-215.945303;  BLOECHL correction:  0.000000
       DOS:  cpu time    0.0040: real time    0.0072
    --------------------------------------------
      LOOP:  cpu time    0.9400: real time    0.9416

 eigenvalue-minimisations  :     0
 total energy-change (2. order) : 0.1818989E-10  ( 0.0000000E+00)
 number of electron      26.0000001 magnetization 
 augmentation part        5.9317102 magnetization 

 Free energy of the ion-electron system (eV)
  ---------------------------------------------------
  alpha Z        PSCENC =        48.70772351
  Ewald energy   TEWEN  =     -1558.36934594
  -Hartree energ DENC   =      -828.69926617
  -exchange      EXHF   =         0.00000000
  -V(xc)+E(xc)   XCENC  =        62.62201040
  PAW double counting   =      1640.56202438    -1663.93739208
  entropy T*S    EENTRO =         0.00000000
  eigenvalues    EBANDS =      -215.94530335
  atomic energy  EATOM  =      2439.51739529
  Solvation  Ediel_sol  =         0.00000000
  ---------------------------------------------------
  free energy    TOTEN  =       -75.54215396 eV

  energy without entropy =      -75.54215396  energy(sigma->0) =      -75.54215396
  exchange ACFDT corr.  =         0.00000000  see jH, gK, PRB 81, 115126


--------------------------------------------------------------------------------------------------------




 average (electrostatic) potential at core
  the test charge radii are     1.0894  0.9698
  (the norm of the test charge is              1.0000)
       1 -96.2853       2 -82.4531       3 -82.4531
 
 
 
 E-fermi :   3.7902     XC(G=0):  -7.8672     alpha+bet :-11.1089


 k-point     1 :       0.0000    0.0000    0.0000
  band No.  band energies     occupation 
      1     -19.1159      2.00000
      2     -19.1159      2.00000
      3     -19.0531      2.00000
      4     -19.0287      2.00000
      5     -19.0287      2.00000
      6     -11.2869      2.00000
      7      -9.1583      2.00000
      8      -2.2063      2.00000
      9       3.1578      2.00000
     10       3.1578      2.00000
     11       3.5015      2.00000
     12       3.5016      2.00000
     13       3.6489      2.00000
     14       6.7607      0.00000
     15       8.4697      0.00000
     16      10.3710      0.00000
     17      10.3710      0.00000
     18      13.7306      0.00000
     19      14.5172      0.00000
     20      14.5173      0.00000
     21      15.5326      0.00000
     22      16.4847      0.00000
     23      16.4848      0.00000
     24      16.7940      0.00000
     25      17.4470      0.00000
     26      17.4470      0.00000
     27      18.6129      0.00000
     28      19.0941      0.00000
     29      23.8490      0.00000
     30      23.8490      0.00000
     31      24.9951      0.00000
     32      25.5528      0.00000
     33      26.9096      0.00000
     34      26.9096      0.00000
     35      28.1883      0.00000
     36      28.1884      0.00000
     37      29.1824      0.00000
     38      29.1824      0.00000
     39      29.4814      0.00000
     40      32.0592      0.00000
     41      34.4517      0.00000
     42      35.2384      0.00000
     43      35.7261      0.00000
     44      35.7261      0.00000
     45      36.0267      0.00000
     46      36.0267      0.00000
     47      36.5369      0.00000
     48      36.5369      0.00000
     49      36.5916      0.00000
     50      38.5494      0.00000
     51      39.1240      0.00000
     52      40.6894      0.00000
     53      40.6894      0.00000
     54      42.3017      0.00000
     55      42.3017      0.00000
     56      43.7057      0.00000
     57      43.7645      0.00000
     58      45.0315      0.00000
     59      45.0316      0.00000
     60      46.1436      0.00000
     61      46.1437      0.00000
     62      46.8657      0.00000
     63      47.2370      0.00000
     64      47.3409      0.00000

 k-point     2 :       0.1667   -0.0000    0.0000
  band No.  band energies     occupation 
      1     -19.1359      2.00000
      2     -19.1034      2.00000
      3     -19.0439      2.00000
      4     -19.0341      2.00000
      5     -19.0246      2.00000
      6     -10.9546      2.00000
      7      -8.9343      2.00000
      8      -2.1345      2.00000
      9       1.1907      2.00000
     10       2.3578      2.00000
     11       2.4017      2.00000
     12       3.6319      2.00000
     13       3.7203      2.00000
     14       7.7032      0.00000
     15       9.3276      0.00000
     16      10.4256      0.00000
     17      10.9191      0.00000
     18      12.8412      0.00000
     19      14.0095      0.00000
     20      14.8620      0.00000
     21      14.9989      0.00000
     22      15.3825      0.00000
     23      16.2758      0.00000
     24      18.2911      0.00000
     25      19.0228      0.00000
     26      19.7435      0.00000
     27      20.4928      0.00000
     28      21.4517      0.00000
     29      22.4784      0.00000
     30      23.7451      0.00000
     31      23.7675      0.00000
     32      25.5069      0.00000
     33      25.6079      0.00000
     34      26.7079      0.00000
     35      27.9711      0.00000
     36      29.2473      0.00000
     37      29.8340      0.00000
     38      30.4751      0.00000
     39      30.7911      0.00000
     40      30.8638      0.00000
     41      32.8269      0.00000
     42      33.0655      0.00000
     43      33.7766      0.00000
     44      34.3976      0.00000
     45      35.5476      0.00000
     46      35.6722      0.00000
     47      36.9620      0.00000
     48      37.2199      0.00000
     49      38.3544      0.00000
     50      38.8042      0.00000
     51      39.2565      0.00000
     52      39.6742      0.00000
     53      41.2310      0.00000
     54      41.4838      0.00000
     55      41.6933      0.00000
     56      43.0674      0.00000
     57      43.7897      0.00000
     58      44.6368      0.00000
     59      44.6752      0.00000
     60      45.2898      0.00000
     61      46.0438      0.00000
     62      46.2227      0.00000
     63      46.5636      0.00000
     64      46.7279      0.00000

 k-point     3 :       0.3333    0.0000    0.0000
  band No.  band energies     occupation 
      1     -19.1802      2.00000
      2     -19.0891      2.00000
      3     -19.0568      2.00000
      4     -19.0096      2.00000
      5     -19.0056      2.00000
      6     -10.0540      2.00000
      7      -8.5280      2.00000
      8      -2.7290      2.00000
      9      -0.4558      2.00000
     10       0.9627      2.00000
     11       1.4653      2.00000
     12       3.2825      2.00000
     13       3.6081      2.00000
     14       6.8393      0.00000
     15       9.5774      0.00000
     16      11.2113      0.00000
     17      11.2720      0.00000
     18      12.2524      0.00000
     19      14.4057      0.00000
     20      15.2455      0.00000
     21      16.3774      0.00000
     22      17.1439      0.00000
     23      18.1630      0.00000
     24      18.8762      0.00000
     25      20.1007      0.00000
     26      20.4314      0.00000
     27      22.1136      0.00000
     28      22.9504      0.00000
     29      23.3825      0.00000
     30      24.1407      0.00000
     31      25.0342      0.00000
     32      25.7481      0.00000
     33      25.8090      0.00000
     34      25.9580      0.00000
     35      26.5884      0.00000
     36      26.8435      0.00000
     37      28.3257      0.00000
     38      28.4470      0.00000
     39      31.3963      0.00000
     40      31.7648      0.00000
     41      33.2215      0.00000
     42      33.5586      0.00000
     43      34.4679      0.00000
     44      34.7170      0.00000
     45      34.8033      0.00000
     46      35.4636      0.00000
     47      36.1473      0.00000
     48      36.9899      0.00000
     49      37.4461      0.00000
     50      37.8821      0.00000
     51      38.8485      0.00000
     52      39.2050      0.00000
     53      39.8415      0.00000
     54      40.2413      0.00000
     55      41.1421      0.00000
     56      41.5848      0.00000
     57      42.2910      0.00000
     58      42.9644      0.00000
     59      43.6339      0.00000
     60      43.9983      0.00000
     61      44.0449      0.00000
     62      45.4290      0.00000
     63      45.8451      0.00000
     64      46.6225      0.00000

 k-point     4 :       0.5000   -0.0000    0.0000
  band No.  band energies     occupation 
      1     -19.2030      2.00000
      2     -19.0867      2.00000
      3     -19.0642      2.00000
      4     -18.9954      2.00000
      5     -18.9911      2.00000
      6      -9.2504      2.00000
      7      -8.5491      2.00000
      8      -3.5057      2.00000
      9      -0.9494      2.00000
     10       0.9043      2.00000
     11       1.1178      2.00000
     12       2.7986      2.00000
     13       3.5122      2.00000
     14       6.3506      0.00000
     15       9.3339      0.00000
     16      10.8041      0.00000
     17      11.1834      0.00000
     18      12.5681      0.00000
     19      15.3876      0.00000
     20      15.9163      0.00000
     21      18.6796      0.00000
     22      18.7198      0.00000
     23      18.8531      0.00000
     24      20.3615      0.00000
     25      20.3867      0.00000
     26      20.6505      0.00000
     27      21.1662      0.00000
     28      21.1822      0.00000
     29      22.0681      0.00000
     30      22.5546      0.00000
     31      23.2544      0.00000
     32      26.1977      0.00000
     33      26.8096      0.00000
     34      28.1435      0.00000
     35      28.1645      0.00000
     36      28.4995      0.00000
     37      29.1886      0.00000
     38      29.9241      0.00000
     39      30.5073      0.00000
     40      31.1718      0.00000
     41      32.0511      0.00000
     42      32.0836      0.00000
     43      32.9210      0.00000
     44      33.4225      0.00000
     45      34.3943      0.00000
     46      34.8880      0.00000
     47      36.6935      0.00000
     48      36.7902      0.00000
     49      37.4705      0.00000
     50      37.6009      0.00000
     51      38.7769      0.00000
     52      39.6400      0.00000
     53      40.2589      0.00000
     54      40.5857      0.00000
     55      41.3460      0.00000
     56      41.6009      0.00000
     57      42.0190      0.00000
     58      42.2313      0.00000
     59      42.4216      0.00000
     60      42.4303      0.00000
     61      42.9957      0.00000
     62      44.4534      0.00000
     63      45.2953      0.00000
     64      45.8516      0.00000

 k-point     5 :       0.1667    0.1667    0.0000
  band No.  band energies     occupation 
      1     -19.1590      2.00000
      2     -19.1009      2.00000
      3     -19.0441      2.00000
      4     -19.0316      2.00000
      5     -19.0062      2.00000
      6     -10.3303      2.00000
      7      -8.6075      2.00000
      8      -2.3878      2.00000
      9       0.3021      2.00000
     10       0.3073      2.00000
     11       2.4208      2.00000
     12       2.6493      2.00000
     13       3.6051      2.00000
     14       7.6093      0.00000
     15      10.6684      0.00000
     16      10.6760      0.00000
     17      11.4811      0.00000
     18      12.2484      0.00000
     19      12.6157      0.00000
     20      15.5894      0.00000
     21      15.9232      0.00000
     22      16.1412      0.00000
     23      17.6980      0.00000
     24      18.6560      0.00000
     25      20.8879      0.00000
     26      21.4205      0.00000
     27      21.5340      0.00000
     28      21.8227      0.00000
     29      23.5073      0.00000
     30      23.8101      0.00000
     31      24.0170      0.00000
     32      24.7340      0.00000
     33      25.5319      0.00000
     34      25.7106      0.00000
     35      27.1987      0.00000
     36      29.0697      0.00000
     37      29.7165      0.00000
     38      30.5717      0.00000
     39      30.8541      0.00000
     40      31.4638      0.00000
     41      31.7633      0.00000
     42      32.5660      0.00000
     43      32.9273      0.00000
     44      34.3203      0.00000
     45      35.1955      0.00000
     46      35.7795      0.00000
     47      36.4962      0.00000
     48      37.2885      0.00000
     49      37.8985      0.00000
     50      38.1683      0.00000
     51      39.1739      0.00000
     52      39.3458      0.00000
     53      40.3170      0.00000
     54      40.9696      0.00000
     55      41.7036      0.00000
     56      42.5100      0.00000
     57      42.5142      0.00000
     58      42.9198      0.00000
     59      43.3199      0.00000
     60      44.0350      0.00000
     61      44.1213      0.00000
     62      45.2175      0.00000
     63      46.1560      0.00000
     64      46.5015      0.00000

 k-point     6 :       0.3333    0.1667    0.0000
  band No.  band energies     occupation 
      1     -19.1808      2.00000
      2     -19.1051      2.00000
      3     -19.0506      2.00000
      4     -19.0111      2.00000
      5     -18.9941      2.00000
      6      -9.3447      2.00000
      7      -8.4394      2.00000
      8      -3.3878      2.00000
      9      -0.6072      2.00000
     10       0.3729      2.00000
     11       1.1035      2.00000
     12       2.4614      2.00000
     13       3.0438      2.00000
     14       6.9765      0.00000
     15      10.7798      0.00000
     16      11.0958      0.00000
     17      11.6931      0.00000
     18      12.4419      0.00000
     19      14.0516      0.00000
     20      15.4106      0.00000
     21      17.3053      0.00000
     22      17.7882      0.00000
     23      18.7849      0.00000
     24      19.6195      0.00000
     25      19.9732      0.00000
     26      20.7386      0.00000
     27      21.4861      0.00000
     28      21.9440      0.00000
     29      22.9752      0.00000
     30      23.9329      0.00000
     31      24.5701      0.00000
     32      26.1088      0.00000
     33      27.4628      0.00000
     34      27.6244      0.00000
     35      27.9900      0.00000
     36      28.4716      0.00000
     37      29.0930      0.00000
     38      29.2173      0.00000
     39      29.8332      0.00000
     40      31.3260      0.00000
     41      32.2918      0.00000
     42      32.8666      0.00000
     43      33.7276      0.00000
     44      34.2768      0.00000
     45      34.9460      0.00000
     46      35.0601      0.00000
     47      35.5390      0.00000
     48      35.9803      0.00000
     49      36.4587      0.00000
     50      37.1717      0.00000
     51      38.3949      0.00000
     52      39.4678      0.00000
     53      39.5678      0.00000
     54      40.2012      0.00000
     55      40.6809      0.00000
     56      40.9183      0.00000
     57      41.6868      0.00000
     58      42.1456      0.00000
     59      42.6668      0.00000
     60      43.4086      0.00000
     61      43.8870      0.00000
     62      44.3896      0.00000
     63      44.9376      0.00000
     64      45.3049      0.00000

 k-point     7 :       0.3333    0.3333    0.0000
  band No.  band energies     occupation 
      1     -19.1460      2.00000
      2     -19.1460      2.00000
      3     -19.0245      2.00000
      4     -19.0245      2.00000
      5     -19.0014      2.00000
      6      -8.6561      2.00000
      7      -8.6561      2.00000
      8      -3.7892      2.00000
      9      -0.0695      2.00000
     10      -0.0695      2.00000
     11       0.3315      2.00000
     12       2.3939      2.00000
     13       2.3939      2.00000
     14       6.8640      0.00000
     15      11.9232      0.00000
     16      11.9232      0.00000
     17      12.8836      0.00000
     18      12.8932      0.00000
     19      13.9384      0.00000
     20      13.9385      0.00000
     21      17.5171      0.00000
     22      17.5171      0.00000
     23      17.9438      0.00000
     24      18.7742      0.00000
     25      18.7742      0.00000
     26      19.8523      0.00000
     27      22.7241      0.00000
     28      24.4031      0.00000
     29      24.4031      0.00000
     30      24.6949      0.00000
     31      25.5557      0.00000
     32      25.5557      0.00000
     33      26.5462      0.00000
     34      27.3812      0.00000
     35      27.3813      0.00000
     36      29.6098      0.00000
     37      29.6121      0.00000
     38      29.6121      0.00000
     39      31.6150      0.00000
     40      31.9641      0.00000
     41      32.1807      0.00000
     42      32.1807      0.00000
     43      32.6170      0.00000
     44      32.6170      0.00000
     45      35.1948      0.00000
     46      35.6631      0.00000
     47      35.6631      0.00000
     48      35.8224      0.00000
     49      36.5456      0.00000
     50      37.3648      0.00000
     51      37.3648      0.00000
     52      37.9218      0.00000
     53      37.9218      0.00000
     54      39.3489      0.00000
     55      39.9564      0.00000
     56      39.9564      0.00000
     57      40.7526      0.00000
     58      40.7526      0.00000
     59      41.3402      0.00000
     60      43.8763      0.00000
     61      43.8763      0.00000
     62      45.2629      0.00000
     63      46.4539      0.00000
     64      46.4539      0.00000

 k-point     8 :       0.0000    0.0000    0.1667
  band No.  band energies     occupation 
      1     -19.1159      2.00000
      2     -19.1159      2.00000
      3     -19.0530      2.00000
      4     -19.0287      2.00000
      5     -19.0287      2.00000
      6     -11.2522      2.00000
      7      -9.2381      2.00000
      8      -1.9895      2.00000
      9       3.1351      2.00000
     10       3.1351      2.00000
     11       3.1655      2.00000
     12       3.5338      2.00000
     13       3.5338      2.00000
     14       7.1086      0.00000
     15       8.4883      0.00000
     16      10.3108      0.00000
     17      10.3109      0.00000
     18      13.7920      0.00000
     19      14.3706      0.00000
     20      14.3706      0.00000
     21      15.1336      0.00000
     22      16.7495      0.00000
     23      16.7495      0.00000
     24      17.0892      0.00000
     25      17.7866      0.00000
     26      17.7866      0.00000
     27      17.9127      0.00000
     28      20.3334      0.00000
     29      22.9318      0.00000
     30      22.9319      0.00000
     31      23.6587      0.00000
     32      26.0675      0.00000
     33      26.0675      0.00000
     34      27.2928      0.00000
     35      28.2805      0.00000
     36      28.6393      0.00000
     37      28.6393      0.00000
     38      30.8944      0.00000
     39      30.8944      0.00000
     40      32.1516      0.00000
     41      33.4550      0.00000
     42      35.2418      0.00000
     43      35.6753      0.00000
     44      35.6753      0.00000
     45      35.9443      0.00000
     46      35.9443      0.00000
     47      36.5627      0.00000
     48      36.5627      0.00000
     49      37.2857      0.00000
     50      39.1140      0.00000
     51      39.5732      0.00000
     52      40.4544      0.00000
     53      40.4544      0.00000
     54      41.1737      0.00000
     55      41.1737      0.00000
     56      43.6222      0.00000
     57      43.6427      0.00000
     58      43.7642      0.00000
     59      43.7642      0.00000
     60      46.1969      0.00000
     61      46.1999      0.00000
     62      47.2041      0.00000
     63      47.3957      0.00000
     64      47.5125      0.00000

 k-point     9 :       0.1667   -0.0000    0.1667
  band No.  band energies     occupation 
      1     -19.1359      2.00000
      2     -19.1034      2.00000
      3     -19.0438      2.00000
      4     -19.0341      2.00000
      5     -19.0246      2.00000
      6     -10.9209      2.00000
      7      -9.0079      2.00000
      8      -1.9525      2.00000
      9       1.1436      2.00000
     10       2.3034      2.00000
     11       2.3485      2.00000
     12       3.5067      2.00000
     13       3.7425      2.00000
     14       7.8454      0.00000
     15       9.3516      0.00000
     16      10.4298      0.00000
     17      10.7868      0.00000
     18      12.5985      0.00000
     19      14.2119      0.00000
     20      14.6180      0.00000
     21      15.0888      0.00000
     22      15.9751      0.00000
     23      16.3358      0.00000
     24      18.5826      0.00000
     25      19.2195      0.00000
     26      19.3664      0.00000
     27      20.3303      0.00000
     28      21.0705      0.00000
     29      22.3567      0.00000
     30      22.3885      0.00000
     31      24.4227      0.00000
     32      25.8536      0.00000
     33      26.3035      0.00000
     34      27.5070      0.00000
     35      27.7854      0.00000
     36      27.8575      0.00000
     37      30.1048      0.00000
     38      30.8251      0.00000
     39      31.0611      0.00000
     40      31.8038      0.00000
     41      32.5704      0.00000
     42      33.0933      0.00000
     43      33.1817      0.00000
     44      33.9840      0.00000
     45      35.4936      0.00000
     46      35.7196      0.00000
     47      35.8830      0.00000
     48      38.3261      0.00000
     49      38.5018      0.00000
     50      38.8190      0.00000
     51      39.6418      0.00000
     52      40.1265      0.00000
     53      40.4301      0.00000
     54      41.5481      0.00000
     55      42.1636      0.00000
     56      42.7409      0.00000
     57      43.5266      0.00000
     58      43.6117      0.00000
     59      44.6503      0.00000
     60      44.6952      0.00000
     61      45.9177      0.00000
     62      46.2451      0.00000
     63      46.5977      0.00000
     64      46.8515      0.00000

 k-point    10 :       0.3333    0.0000    0.1667
  band No.  band energies     occupation 
      1     -19.1803      2.00000
      2     -19.0891      2.00000
      3     -19.0567      2.00000
      4     -19.0095      2.00000
      5     -19.0056      2.00000
      6     -10.0250      2.00000
      7      -8.5776      2.00000
      8      -2.6322      2.00000
      9      -0.6538      2.00000
     10       1.0392      2.00000
     11       1.4838      2.00000
     12       3.4241      2.00000
     13       3.5711      2.00000
     14       6.9123      0.00000
     15       9.5604      0.00000
     16      10.9970      0.00000
     17      11.3083      0.00000
     18      11.7232      0.00000
     19      14.6819      0.00000
     20      16.1213      0.00000
     21      16.6906      0.00000
     22      16.8700      0.00000
     23      17.9583      0.00000
     24      18.8315      0.00000
     25      19.2449      0.00000
     26      19.9549      0.00000
     27      22.7225      0.00000
     28      22.8582      0.00000
     29      23.6431      0.00000
     30      24.0734      0.00000
     31      25.0187      0.00000
     32      25.7492      0.00000
     33      25.9141      0.00000
     34      26.7880      0.00000
     35      27.0893      0.00000
     36      27.4872      0.00000
     37      28.0105      0.00000
     38      28.5231      0.00000
     39      30.3922      0.00000
     40      30.6600      0.00000
     41      32.7557      0.00000
     42      33.7843      0.00000
     43      34.2562      0.00000
     44      35.0467      0.00000
     45      35.3376      0.00000
     46      35.5457      0.00000
     47      35.8250      0.00000
     48      36.7195      0.00000
     49      37.6001      0.00000
     50      37.7771      0.00000
     51      38.7287      0.00000
     52      38.9184      0.00000
     53      39.2708      0.00000
     54      40.2461      0.00000
     55      41.5221      0.00000
     56      41.8748      0.00000
     57      42.5436      0.00000
     58      43.3482      0.00000
     59      43.7360      0.00000
     60      44.3236      0.00000
     61      44.6071      0.00000
     62      45.4593      0.00000
     63      45.4876      0.00000
     64      46.1224      0.00000

 k-point    11 :       0.5000   -0.0000    0.1667
  band No.  band energies     occupation 
      1     -19.2031      2.00000
      2     -19.0868      2.00000
      3     -19.0643      2.00000
      4     -18.9954      2.00000
      5     -18.9911      2.00000
      6      -9.2302      2.00000
      7      -8.5638      2.00000
      8      -3.5463      2.00000
      9      -1.0604      2.00000
     10       1.0832      2.00000
     11       1.1503      2.00000
     12       2.9327      2.00000
     13       3.4389      2.00000
     14       6.2326      0.00000
     15       9.3670      0.00000
     16      10.9958      0.00000
     17      11.3581      0.00000
     18      11.9316      0.00000
     19      15.1678      0.00000
     20      16.4365      0.00000
     21      18.2041      0.00000
     22      18.5413      0.00000
     23      19.2389      0.00000
     24      19.6514      0.00000
     25      20.4121      0.00000
     26      20.8671      0.00000
     27      21.0832      0.00000
     28      21.8411      0.00000
     29      21.8495      0.00000
     30      23.1896      0.00000
     31      23.3049      0.00000
     32      26.3553      0.00000
     33      27.1305      0.00000
     34      28.0444      0.00000
     35      28.3773      0.00000
     36      28.6360      0.00000
     37      29.1144      0.00000
     38      29.9458      0.00000
     39      30.5779      0.00000
     40      31.0274      0.00000
     41      31.4042      0.00000
     42      31.4171      0.00000
     43      32.3852      0.00000
     44      33.5736      0.00000
     45      34.9294      0.00000
     46      35.0957      0.00000
     47      36.1403      0.00000
     48      36.5784      0.00000
     49      37.7862      0.00000
     50      37.8793      0.00000
     51      38.9886      0.00000
     52      39.3077      0.00000
     53      39.3943      0.00000
     54      40.1698      0.00000
     55      40.3201      0.00000
     56      40.9920      0.00000
     57      42.0968      0.00000
     58      42.4087      0.00000
     59      42.5196      0.00000
     60      43.1829      0.00000
     61      44.4000      0.00000
     62      45.2148      0.00000
     63      45.4794      0.00000
     64      45.8586      0.00000

 k-point    12 :      -0.3333   -0.0000    0.1667
  band No.  band energies     occupation 
      1     -19.1803      2.00000
      2     -19.0891      2.00000
      3     -19.0568      2.00000
      4     -19.0095      2.00000
      5     -19.0056      2.00000
      6     -10.0230      2.00000
      7      -8.5745      2.00000
      8      -2.8235      2.00000
      9      -0.2511      2.00000
     10       1.1210      2.00000
     11       1.5092      2.00000
     12       3.0372      2.00000
     13       3.5176      2.00000
     14       6.6014      0.00000
     15       9.6828      0.00000
     16      11.4890      0.00000
     17      11.5680      0.00000
     18      12.5544      0.00000
     19      13.9785      0.00000
     20      14.9164      0.00000
     21      16.1355      0.00000
     22      16.8952      0.00000
     23      18.1026      0.00000
     24      19.0110      0.00000
     25      20.2112      0.00000
     26      20.4442      0.00000
     27      22.1602      0.00000
     28      23.2702      0.00000
     29      23.7489      0.00000
     30      24.6409      0.00000
     31      25.1113      0.00000
     32      25.1619      0.00000
     33      25.4489      0.00000
     34      25.9300      0.00000
     35      26.2865      0.00000
     36      26.8712      0.00000
     37      28.8590      0.00000
     38      29.5121      0.00000
     39      31.0963      0.00000
     40      31.8676      0.00000
     41      32.1250      0.00000
     42      33.5781      0.00000
     43      34.1123      0.00000
     44      34.4039      0.00000
     45      35.2127      0.00000
     46      35.5801      0.00000
     47      35.9672      0.00000
     48      36.7359      0.00000
     49      37.3987      0.00000
     50      37.8978      0.00000
     51      38.3118      0.00000
     52      38.8014      0.00000
     53      40.1833      0.00000
     54      41.0106      0.00000
     55      41.1116      0.00000
     56      41.2074      0.00000
     57      41.8897      0.00000
     58      42.9321      0.00000
     59      43.5370      0.00000
     60      44.2794      0.00000
     61      44.3001      0.00000
     62      44.9495      0.00000
     63      45.8133      0.00000
     64      46.4656      0.00000

 k-point    13 :      -0.1667    0.0000    0.1667
  band No.  band energies     occupation 
      1     -19.1360      2.00000
      2     -19.1034      2.00000
      3     -19.0439      2.00000
      4     -19.0341      2.00000
      5     -19.0246      2.00000
      6     -10.9203      2.00000
      7      -9.0077      2.00000
      8      -2.0028      2.00000
      9       1.3233      2.00000
     10       2.4092      2.00000
     11       2.4124      2.00000
     12       3.2541      2.00000
     13       3.6348      2.00000
     14       7.5701      0.00000
     15       9.5190      0.00000
     16      10.6580      0.00000
     17      11.0399      0.00000
     18      12.8590      0.00000
     19      13.7431      0.00000
     20      14.5991      0.00000
[...]
     51      38.5679      0.00000
     52      39.2882      0.00000
     53      39.2882      0.00000
     54      39.4144      0.00000
     55      40.9718      0.00000
     56      40.9718      0.00000
     57      43.1724      0.00000
     58      43.2844      0.00000
     59      45.1942      0.00000
     60      45.8860      0.00000
     61      46.9646      0.00000
     62      46.9646      0.00000
     63      48.1979      0.00000
     64      48.3253      0.00000

 k-point    29 :       0.1667   -0.0000    0.5000
  band No.  band energies     occupation 
      1     -19.1360      2.00000
      2     -19.1034      2.00000
      3     -19.0438      2.00000
      4     -19.0341      2.00000
      5     -19.0246      2.00000
      6     -10.8037      2.00000
      7      -9.2375      2.00000
      8      -1.4476      2.00000
      9       1.3945      2.00000
     10       2.1581      2.00000
     11       2.4503      2.00000
     12       2.6334      2.00000
     13       3.5914      2.00000
     14       7.6786      0.00000
     15       9.7125      0.00000
     16      10.8834      0.00000
     17      10.9603      0.00000
     18      12.4364      0.00000
     19      13.7584      0.00000
     20      14.6679      0.00000
     21      14.7794      0.00000
     22      16.8177      0.00000
     23      17.4910      0.00000
     24      18.0000      0.00000
     25      18.6844      0.00000
     26      19.4226      0.00000
     27      20.3818      0.00000
     28      20.9568      0.00000
     29      21.2968      0.00000
     30      22.1918      0.00000
     31      24.8090      0.00000
     32      24.8849      0.00000
     33      25.8172      0.00000
     34      27.9830      0.00000
     35      28.1251      0.00000
     36      30.1764      0.00000
     37      30.3259      0.00000
     38      30.6194      0.00000
     39      31.3162      0.00000
     40      31.5576      0.00000
     41      32.5752      0.00000
     42      32.8091      0.00000
     43      33.9991      0.00000
     44      34.3976      0.00000
     45      34.7645      0.00000
     46      35.8325      0.00000
     47      36.8589      0.00000
     48      37.3155      0.00000
     49      37.3263      0.00000
     50      37.8759      0.00000
     51      38.4188      0.00000
     52      39.7221      0.00000
     53      40.9309      0.00000
     54      41.0691      0.00000
     55      42.1476      0.00000
     56      42.7012      0.00000
     57      43.9037      0.00000
     58      44.5688      0.00000
     59      44.6358      0.00000
     60      45.0243      0.00000
     61      45.8102      0.00000
     62      46.3612      0.00000
     63      46.5257      0.00000
     64      46.7384      0.00000

 k-point    30 :       0.3333    0.0000    0.5000
  band No.  band energies     occupation 
      1     -19.1804      2.00000
      2     -19.0891      2.00000
      3     -19.0568      2.00000
      4     -19.0094      2.00000
      5     -19.0056      2.00000
      6      -9.9208      2.00000
      7      -8.7324      2.00000
      8      -2.7364      2.00000
      9      -0.5263      2.00000
     10       1.6004      2.00000
     11       1.8134      2.00000
     12       2.6984      2.00000
     13       3.3460      2.00000
     14       6.6419      0.00000
     15       9.8371      0.00000
     16      10.9674      0.00000
     17      11.7960      0.00000
     18      11.7996      0.00000
     19      15.1646      0.00000
     20      15.5767      0.00000
     21      16.3067      0.00000
     22      16.5364      0.00000
     23      17.4478      0.00000
     24      18.2501      0.00000
     25      18.7173      0.00000
     26      21.4678      0.00000
     27      22.0246      0.00000
     28      23.2483      0.00000
     29      24.4583      0.00000
     30      24.6465      0.00000
     31      25.6169      0.00000
     32      25.7237      0.00000
     33      26.4461      0.00000
     34      26.5381      0.00000
     35      27.0271      0.00000
     36      27.7810      0.00000
     37      28.2116      0.00000
     38      28.8596      0.00000
     39      29.7130      0.00000
     40      31.7746      0.00000
     41      32.4645      0.00000
     42      32.5521      0.00000
     43      32.9866      0.00000
     44      33.2331      0.00000
     45      35.0305      0.00000
     46      35.8767      0.00000
     47      36.1183      0.00000
     48      36.8582      0.00000
     49      37.2322      0.00000
     50      37.3238      0.00000
     51      38.5825      0.00000
     52      38.6548      0.00000
     53      40.1306      0.00000
     54      40.3074      0.00000
     55      40.4135      0.00000
     56      41.8092      0.00000
     57      42.0404      0.00000
     58      42.8253      0.00000
     59      43.3879      0.00000
     60      44.9263      0.00000
     61      45.6363      0.00000
     62      46.1610      0.00000
     63      46.6240      0.00000
     64      47.5410      0.00000

 k-point    31 :       0.5000   -0.0000    0.5000
  band No.  band energies     occupation 
      1     -19.2033      2.00000
      2     -19.0868      2.00000
      3     -19.0643      2.00000
      4     -18.9953      2.00000
      5     -18.9911      2.00000
      6      -9.1616      2.00000
      7      -8.6160      2.00000
      8      -3.6565      2.00000
      9      -1.3539      2.00000
     10       1.2587      2.00000
     11       1.7718      2.00000
     12       3.0311      2.00000
     13       3.2136      2.00000
     14       6.1602      0.00000
     15       9.5322      0.00000
     16      10.4671      0.00000
     17      11.1583      0.00000
     18      11.9565      0.00000
     19      15.7778      0.00000
     20      16.5596      0.00000
     21      17.2998      0.00000
     22      17.5706      0.00000
     23      18.9835      0.00000
     24      18.9968      0.00000
     25      20.0664      0.00000
     26      20.8360      0.00000
     27      22.4920      0.00000
     28      22.7271      0.00000
     29      23.0965      0.00000
     30      24.6013      0.00000
     31      25.0359      0.00000
     32      25.3671      0.00000
     33      25.3904      0.00000
     34      28.0097      0.00000
     35      28.4737      0.00000
     36      28.7722      0.00000
     37      28.9008      0.00000
     38      29.7524      0.00000
     39      30.2754      0.00000
     40      30.7540      0.00000
     41      31.0374      0.00000
     42      32.4354      0.00000
     43      32.7678      0.00000
     44      34.1960      0.00000
     45      34.3929      0.00000
     46      34.6406      0.00000
     47      34.6475      0.00000
     48      36.1523      0.00000
     49      36.2941      0.00000
     50      36.5907      0.00000
     51      37.8153      0.00000
     52      38.5128      0.00000
     53      39.2862      0.00000
     54      39.7019      0.00000
     55      41.1519      0.00000
     56      41.5517      0.00000
     57      42.4168      0.00000
     58      42.8070      0.00000
     59      44.0638      0.00000
     60      44.7046      0.00000
     61      44.7970      0.00000
     62      45.8452      0.00000
     63      46.0958      0.00000
     64      47.2569      0.00000

 k-point    32 :       0.1667    0.1667    0.5000
  band No.  band energies     occupation 
      1     -19.1591      2.00000
      2     -19.1009      2.00000
      3     -19.0442      2.00000
      4     -19.0315      2.00000
      5     -19.0061      2.00000
      6     -10.1893      2.00000
      7      -8.8510      2.00000
      8      -2.2332      2.00000
      9       0.1853      2.00000
     10       0.9673      2.00000
     11       1.9791      2.00000
     12       2.9402      2.00000
     13       3.0138      2.00000
     14       7.5769      0.00000
     15      10.2896      0.00000
     16      11.2857      0.00000
     17      11.3985      0.00000
     18      12.2056      0.00000
     19      13.6323      0.00000
     20      14.7258      0.00000
     21      14.9946      0.00000
     22      17.0772      0.00000
     23      17.5546      0.00000
     24      18.6866      0.00000
     25      19.4874      0.00000
     26      21.2121      0.00000
     27      21.5792      0.00000
     28      22.1497      0.00000
     29      23.3275      0.00000
     30      23.4163      0.00000
     31      25.1136      0.00000
     32      25.8493      0.00000
     33      26.0396      0.00000
     34      28.0469      0.00000
     35      28.3346      0.00000
     36      28.5039      0.00000
     37      28.7259      0.00000
     38      29.7048      0.00000
     39      30.3309      0.00000
     40      31.2960      0.00000
     41      31.9650      0.00000
     42      32.0287      0.00000
     43      32.5363      0.00000
     44      33.6869      0.00000
     45      34.4831      0.00000
     46      35.2208      0.00000
     47      36.1429      0.00000
     48      36.7286      0.00000
     49      37.4896      0.00000
     50      37.9238      0.00000
     51      39.0032      0.00000
     52      39.7654      0.00000
     53      40.0137      0.00000
     54      40.5795      0.00000
     55      41.6450      0.00000
     56      41.8263      0.00000
     57      42.3927      0.00000
     58      43.6399      0.00000
     59      44.7306      0.00000
     60      44.9863      0.00000
     61      45.7605      0.00000
     62      45.9848      0.00000
     63      46.4404      0.00000
     64      46.7249      0.00000

 k-point    33 :       0.3333    0.1667    0.5000
  band No.  band energies     occupation 
      1     -19.1810      2.00000
      2     -19.1051      2.00000
      3     -19.0506      2.00000
      4     -19.0111      2.00000
      5     -18.9940      2.00000
      6      -9.2452      2.00000
      7      -8.5407      2.00000
      8      -3.4191      2.00000
      9      -0.9390      2.00000
     10       0.2843      2.00000
     11       1.1727      2.00000
     12       3.0873      2.00000
     13       3.2890      2.00000
     14       7.2147      0.00000
     15      10.1321      0.00000
     16      10.9549      0.00000
     17      11.4004      0.00000
     18      12.2672      0.00000
     19      14.2425      0.00000
     20      15.2591      0.00000
     21      15.6624      0.00000
     22      17.4977      0.00000
     23      19.2452      0.00000
     24      19.6095      0.00000
     25      20.9617      0.00000
     26      21.4417      0.00000
     27      22.0901      0.00000
     28      22.9852      0.00000
     29      23.6143      0.00000
     30      24.8783      0.00000
     31      25.5678      0.00000
     32      26.0116      0.00000
     33      26.4578      0.00000
     34      26.8127      0.00000
     35      27.6859      0.00000
     36      28.4842      0.00000
     37      29.0616      0.00000
     38      29.1933      0.00000
     39      29.3392      0.00000
     40      31.0541      0.00000
     41      31.6787      0.00000
     42      32.6899      0.00000
     43      33.1816      0.00000
     44      33.5648      0.00000
     45      33.7618      0.00000
     46      34.7259      0.00000
     47      35.3773      0.00000
     48      35.8382      0.00000
     49      36.4858      0.00000
     50      37.4348      0.00000
     51      37.7544      0.00000
     52      38.9076      0.00000
     53      39.7129      0.00000
     54      40.0345      0.00000
     55      40.5788      0.00000
     56      41.0592      0.00000
     57      41.4977      0.00000
     58      42.1960      0.00000
     59      43.1710      0.00000
     60      44.3266      0.00000
     61      44.7436      0.00000
     62      45.8802      0.00000
     63      46.2087      0.00000
     64      46.9547      0.00000

 k-point    34 :       0.3333    0.3333    0.5000
  band No.  band energies     occupation 
      1     -19.1462      2.00000
      2     -19.1462      2.00000
      3     -19.0245      2.00000
      4     -19.0245      2.00000
      5     -19.0014      2.00000
      6      -8.6406      2.00000
      7      -8.6406      2.00000
      8      -3.7124      2.00000
      9      -0.5396      2.00000
     10      -0.5395      2.00000
     11       0.0087      2.00000
     12       3.3497      2.00000
     13       3.3497      2.00000
     14       7.8444      0.00000
     15      10.2939      0.00000
     16      10.2939      0.00000
     17      12.2003      0.00000
     18      13.6343      0.00000
     19      14.5576      0.00000
     20      14.6493      0.00000
     21      14.6493      0.00000
     22      17.0335      0.00000
     23      17.0335      0.00000
     24      21.1667      0.00000
     25      21.1668      0.00000
     26      23.1384      0.00000
     27      23.1384      0.00000
     28      24.1221      0.00000
     29      24.1630      0.00000
     30      25.1439      0.00000
     31      25.2480      0.00000
     32      25.9227      0.00000
     33      25.9227      0.00000
     34      27.3538      0.00000
     35      27.3538      0.00000
     36      28.6832      0.00000
     37      28.9357      0.00000
     38      29.1205      0.00000
     39      29.1205      0.00000
     40      31.1477      0.00000
     41      31.1477      0.00000
     42      31.2607      0.00000
     43      33.5366      0.00000
     44      33.5366      0.00000
     45      34.6569      0.00000
     46      35.3421      0.00000
     47      35.3422      0.00000
     48      35.3824      0.00000
     49      35.3824      0.00000
     50      36.7422      0.00000
     51      37.1988      0.00000
     52      38.7450      0.00000
     53      38.7450      0.00000
     54      40.8696      0.00000
     55      40.8696      0.00000
     56      41.7889      0.00000
     57      42.1241      0.00000
     58      42.1241      0.00000
     59      42.9571      0.00000
     60      43.5597      0.00000
     61      44.1195      0.00000
     62      44.1195      0.00000
     63      44.8212      0.00000
     64      44.8212      0.00000


--------------------------------------------------------------------------------------------------------


 soft charge-density along one line, spin component           1
         0         1         2         3         4         5         6         7         8         9
 total charge-density along one line
 
 pseudopotential strength for first ion, spin component:           1
-15.430   0.000   0.000  -0.017   0.000  10.011  -0.000  -0.000
  0.000 -15.415  -0.000  -0.000  -0.017  -0.000   9.999   0.000
  0.000  -0.000 -15.437   0.000  -0.000  -0.000   0.000  10.017
 -0.017  -0.000   0.000 -15.415   0.000   0.014   0.000  -0.000
  0.000  -0.017  -0.000   0.000 -15.430  -0.000   0.014   0.000
 10.011  -0.000  -0.000   0.014  -0.000  -3.797   0.000   0.000
 -0.000   9.999   0.000   0.000   0.014   0.000  -3.789  -0.000
 -0.000   0.000  10.017  -0.000   0.000   0.000  -0.000  -3.800
  0.014   0.000  -0.000   9.999  -0.000  -0.009  -0.000   0.000
 -0.000   0.014   0.000  -0.000  10.011   0.000  -0.009  -0.000
 -0.000  -0.000  -0.001   0.000   0.000   0.000   0.000  -0.000
  0.000   0.000  -0.000  -0.000  -0.000  -0.000  -0.000   0.000
  0.000  -0.000  -0.000   0.000  -0.000  -0.000   0.000   0.000
  0.000   0.000  -0.000   0.000   0.000  -0.000   0.000   0.000
  0.000   0.000  -0.000  -0.000   0.000   0.000  -0.000   0.000
 -0.000   0.000   0.000   0.000   0.000   0.000  -0.000  -0.000
  0.000  -0.000   0.000  -0.000   0.000  -0.000   0.000  -0.000
 -0.000   0.000   0.000   0.000  -0.000   0.000  -0.000  -0.000
 total augmentation occupancy for first ion, spin component:           1
  2.018   0.000   0.000  -0.046  -0.000   0.060   0.000   0.000  -0.074  -0.000  -0.000  -0.000   0.000  -0.000   0.000   0.000
  0.000   2.047   0.000   0.000  -0.046   0.000   0.110  -0.000   0.000  -0.074   0.000   0.000  -0.000   0.000  -0.000  -0.000
  0.000   0.000   1.983  -0.000   0.000   0.000  -0.000   0.006  -0.000  -0.000  -0.007  -0.002  -0.000  -0.000  -0.000  -0.000
 -0.046   0.000  -0.000   2.047  -0.000  -0.074   0.000  -0.000   0.110  -0.000  -0.000  -0.000  -0.000   0.000  -0.000  -0.000
 -0.000  -0.046   0.000  -0.000   2.018  -0.000  -0.074  -0.000  -0.000   0.060   0.000   0.000   0.000  -0.000   0.000  -0.000
  0.060   0.000   0.000  -0.074  -0.000   0.132   0.000  -0.000  -0.120  -0.000  -0.000   0.000   0.000  -0.000   0.000  -0.000
  0.000   0.110  -0.000   0.000  -0.074   0.000   0.215  -0.000   0.000  -0.120   0.000   0.000  -0.000   0.000  -0.000   0.000
  0.000  -0.000   0.006  -0.000  -0.000  -0.000  -0.000   0.049  -0.000   0.000  -0.010  -0.002  -0.000  -0.000  -0.000  -0.000
 -0.074   0.000  -0.000   0.110  -0.000  -0.120   0.000  -0.000   0.215  -0.000  -0.000  -0.000  -0.000   0.000  -0.000   0.000
 -0.000  -0.074  -0.000  -0.000   0.060  -0.000  -0.120   0.000  -0.000   0.132   0.000  -0.000   0.000  -0.000  -0.000  -0.000
 -0.000   0.000  -0.007  -0.000   0.000  -0.000   0.000  -0.010  -0.000   0.000   1.281   0.172   0.000  -0.000   0.000   0.000
 -0.000   0.000  -0.002  -0.000   0.000   0.000   0.000  -0.002  -0.000  -0.000   0.172   0.031   0.000  -0.000   0.000  -0.000
  0.000  -0.000  -0.000  -0.000   0.000   0.000  -0.000  -0.000  -0.000   0.000   0.000   0.000   0.753   0.000   0.000  -0.635
 -0.000   0.000  -0.000   0.000  -0.000  -0.000   0.000  -0.000   0.000  -0.000  -0.000  -0.000   0.000   0.735  -0.000  -0.000
  0.000  -0.000  -0.000  -0.000   0.000   0.000  -0.000  -0.000  -0.000  -0.000   0.000   0.000   0.000  -0.000   0.753   0.000
  0.000  -0.000  -0.000  -0.000  -0.000  -0.000   0.000  -0.000   0.000  -0.000   0.000  -0.000  -0.635  -0.000   0.000   0.622
  0.000   0.000  -0.000   0.000   0.000   0.000  -0.000   0.000  -0.000   0.000   0.000   0.000  -0.000  -0.610   0.000   0.000
 -0.000   0.000  -0.000  -0.000   0.000  -0.000   0.000  -0.000   0.000   0.000   0.000  -0.000   0.000   0.000  -0.635  -0.000


------------------------ aborting loop because EDIFF is reached ----------------------------------------




--------------------------------------------------------------------------------------------------------



  FREE ENERGIE OF THE ION-ELECTRON SYSTEM (eV)
  ---------------------------------------------------
  free  energy   TOTEN  =       -75.54215396 eV

  energy  without entropy=      -75.54215396  energy(sigma->0) =      -75.54215396
 


--------------------------------------------------------------------------------------------------------




--------------------------------------------------------------------------------------------------------


     LOOP+:  cpu time   90.3600: real time   90.6950
    4ORBIT:  cpu time    0.0000: real time    0.0000
 BZINTS: Fermi energy:  3.790155; 26.000000 electrons
         Band energy:-215.945303;  BLOECHL correction:  0.000000

 total amount of memory used by VASP on root node    52377. kBytes
========================================================================

   base      :      30000. kBytes
   nonl-proj :      12752. kBytes
   fftplans  :        884. kBytes
   grid      :       2244. kBytes
   one-center:         46. kBytes
   HF        :        129. kBytes
   nonlr-proj:        508. kBytes
   wavefun   :       5814. kBytes
 
  
  
 General timing and accounting informations for this job:
 ========================================================
  
                  Total CPU time used (sec):      158.396
                            User time (sec):      143.936
                          System time (sec):       14.460
                         Elapsed time (sec):      158.780
  
                   Maximum memory used (kb):      322664.
                   Average memory used (kb):           0.
  
                          Minor page faults:      1009279
                          Major page faults:            0
                 Voluntary context switches:           44
