 
             +---------------------------------------------------+
             |                                                   |
             |                   WANNIER90                       |
             |                                                   |
             +---------------------------------------------------+
             |                                                   |
             |        Welcome to the Maximally-Localized         |
             |        Generalized Wannier Functions code         |
             |            http://www.wannier.org                 |
             |                                                   |
             |  Wannier90 Authors:                               |
             |    Arash A. Mostofi   (Imperial College London)   |
             |    Jonathan R. Yates  (University of Oxford)      |
             |    Young-Su Lee       (KIST, S. Korea)            |
             |                                                   |
             |  Wannier90 Contributors:                          |
             |    Matthew Shelley    (Imperial College London)   |
             |    Nicolas Poilvert   (MIT)                       |
             |                                                   |
             |  Wannier77 Authors:                               |
             |    Nicola Marzari     (University of Oxford)      |
             |    Ivo Souza          (UC Berkeley)               |
             |    David Vanderbilt   (Rutgers University)        |
             |                                                   |
             |  Please cite                                      |
             |                                                   |
             |  [ref] "Wannier90: A Tool for Obtaining Maximally |
             |         Localised Wannier Functions"              |
             |        A. A. Mostofi, J. R. Yates, Y.-S. Lee,     |
             |        I. Souza, D. Vanderbilt and N. Marzari     |
             |        Comput. Phys. Commun. 178, 685 (2008)      |
             |                                                   |
             |  in any publications arising from the use of      |
             |  this code. For the method please cite            |
             |                                                   |
             |  [ref] "Maximally Localized Generalised Wannier   |
             |         Functions for Composite Energy Bands"     |
             |         N. Marzari and D. Vanderbilt              |
             |         Phys. Rev. B 56 12847 (1997)              |
             |                                                   |
             |  [ref] "Maximally Localized Wannier Functions     |
             |         for Entangled Energy Bands"               |
             |         I. Souza, N. Marzari and D. Vanderbilt    |
             |         Phys. Rev. B 65 035109 (2001)             |
             |                                                   |
             |                                                   |
             | Copyright (c) 1996-2010                           |
             |        A. A. Mostofi, J. R. Yates, Y.-S. Lee,     |
             |        I. Souza, D. Vanderbilt and N. Marzari     |
             |                                                   |
             |        Release: 1.2        24th Jan 2010          |
             |                                                   |
             | This program is free software; you can            |
             | redistribute it and/or modify it under the terms  |
             | of the GNU General Public License as published by |
             | the Free Software Foundation; either version 2 of |
             | the License, or (at your option) any later version|
             |                                                   |
             | This program is distributed in the hope that it   |
             | will be useful, but WITHOUT ANY WARRANTY; without |
             | even the implied warranty of MERCHANTABILITY or   |
             | FITNESS FOR A PARTICULAR PURPOSE. See the GNU     |
             | General Public License for more details.          |
             |                                                   |
             | You should have received a copy of the GNU General|
             | Public License along with this program; if not,   |
             | write to the Free Software Foundation, Inc.,      |
             | 675 Mass Ave, Cambridge, MA 02139, USA.           |
             |                                                   |
             +---------------------------------------------------+
             |    Execution started on 30Oct2016 at 10:51:22     |
             +---------------------------------------------------+
 
                                    ------
                                    SYSTEM
                                    ------
 
                              Lattice Vectors (Ang)
                    a_1     3.651000   0.000000   0.000000
                    a_2    -1.825500   3.161859   0.000000
                    a_3     0.000000   0.000000   6.015000
 
                   Unit Cell Volume:      69.43684  (Ang^3)
 
                        Reciprocal-Space Vectors (Ang^-1)
                    b_1     1.720949   0.993590   0.000000
                    b_2     0.000000   1.987181   0.000000
                    b_3     0.000000   0.000000   1.044586
  
 *----------------------------------------------------------------------------*
 |   Site       Fractional Coordinate          Cartesian Coordinate (Ang)     |
 +----------------------------------------------------------------------------+
 | Sn   1   0.00000   0.00000   0.00000   |    0.00000   0.00000   0.00000    |
 | S    1   0.33333   0.66667   0.24520   |    0.00000   2.10790   1.47488    |
 | S    2   0.66667   0.33333   0.75480   |    1.82550   1.05395   4.54012    |
 *----------------------------------------------------------------------------*
  
                                ------------
                                K-POINT GRID
                                ------------
  
             Grid size =  6 x  6 x  6      Total points =  216
  
  
 *---------------------------------- MAIN ------------------------------------*
 |  Number of Wannier Functions               :                64             |
 |  Number of input Bloch states              :                64             |
 |  Output verbosity (1=low, 5=high)          :                 1             |
 |  Timing Level (1=low, 5=high)              :                 1             |
 |  Optimisation (0=memory, 3=speed)          :                 3             |
 |  Length Unit                               :               Ang             |
 |  Post-processing setup (write *.nnkp)      :                 F             |
 |  Using Gamma-only branch of algorithms     :                 F             |
 *----------------------------------------------------------------------------*
 *------------------------------- WANNIERISE ---------------------------------*
 |  Total number of iterations                :               100             |
 |  Number of CG steps before reset           :                 5             |
 |  Trial step length for line search         :             2.000             |
 |  Convergence tolerence                     :         0.100E-09             |
 |  Convergence window                        :                -1             |
 |  Iterations between writing output         :                 1             |
 |  Iterations between backing up to disk     :               100             |
 |  Write r^2_nm to file                      :                 F             |
 |  Write xyz WF centres to file              :                 F             |
 |  Use guiding centre to control phases      :                 F             |
 *----------------------------------------------------------------------------*
 *-------------------------------- PLOTTING ----------------------------------*
 |  Plotting interpolated bandstructure       :                 T             |
 |   Number of K-path sections                :                 7             |
 |   Divisions along first K-path section     :                51             |
 |   Output format                            :          'gnuplot             |
 |   Output mode                              :               s-k             |
 *----------------------------------------------------------------------------*
 |   K-space path sections:                                                   |
 |    From:  G    0.000  0.000  0.000     To:  A    0.000  0.000  0.500       |
 |    From:  A    0.000  0.000  0.500     To:  H    0.333  0.333  0.500       |
 |    From:  H    0.333  0.333  0.500     To:  K    0.333  0.333  0.000       |
 |    From:  K    0.333  0.333  0.000     To:  G    0.000  0.000  0.000       |
 |    From:  G    0.000  0.000  0.000     To:  M    0.500  0.000  0.000       |
 |    From:  M    0.500  0.000  0.000     To:  L    0.500  0.000  0.500       |
 |    From:  L    0.500  0.000  0.500     To:  H    0.333  0.333  0.500       |
 *----------------------------------------------------------------------------*
 Time to read parameters        0.024 (sec)

 *---------------------------------- K-MESH ----------------------------------*
 +----------------------------------------------------------------------------+
 |                    Distance to Nearest-Neighbour Shells                    |
 |                    ------------------------------------                    |
 |          Shell             Distance (Ang^-1)          Multiplicity         |
 |          -----             -----------------          ------------         |
 |             1                   0.174098                      2            |
 |             2                   0.331197                      6            |
 |             3                   0.348195                      2            |
 |             4                   0.374168                     12            |
 |             5                   0.480553                     12            |
 |             6                   0.522293                      2            |
 |             7                   0.573650                      6            |
 |             8                   0.599486                     12            |
 |             9                   0.618451                     12            |
 |            10                   0.662394                      6            |
 |            11                   0.671054                     12            |
 |            12                   0.684891                     12            |
 +----------------------------------------------------------------------------+
 | The b-vectors are chosen automatically                                     |
 | The following shells are used:   1,  2                                     |
 +----------------------------------------------------------------------------+
 |                        Shell   # Nearest-Neighbours                        |
 |                        -----   --------------------                        |
 |                          1               2                                 |
 |                          2               6                                 |
 +----------------------------------------------------------------------------+
 | Completeness relation is fully satisfied [Eq. (B1), PRB 56, 12847 (1997)]  |
 +----------------------------------------------------------------------------+
 |                  b_k Vectors (Ang^-1) and Weights (Ang^2)                  |
 |                  ----------------------------------------                  |
 |            No.         b_k(x)      b_k(y)      b_k(z)        w_b           |
 |            ---        --------------------------------     --------        |
 |             1         0.000000    0.000000    0.174098    16.496204        |
 |             2         0.000000    0.000000   -0.174098    16.496204        |
 |             3         0.286825    0.165598    0.000000     3.038830        |
 |             4        -0.286825   -0.165598    0.000000     3.038830        |
 |             5        -0.286825    0.165598    0.000000     3.038830        |
 |             6         0.286825   -0.165598    0.000000     3.038830        |
 |             7         0.000000   -0.331197    0.000000     3.038830        |
 |             8         0.000000    0.331197    0.000000     3.038830        |
 +----------------------------------------------------------------------------+
 |                           b_k Directions (Ang^-1)                          |
 |                           -----------------------                          |
 |            No.           x           y           z                         |
 |            ---        --------------------------------                     |
 |             1         0.000000    0.000000    0.174098                     |
 |             2         0.286825    0.165598    0.000000                     |
 |             3        -0.286825    0.165598    0.000000                     |
 |             4         0.000000   -0.331197    0.000000                     |
 +----------------------------------------------------------------------------+
  
 *============================================================================*
 |                              MEMORY ESTIMATE                               |
 |         Maximum RAM allocated during each phase of the calculation         |
 *============================================================================*
 |                            Wannierise:          274.75 Mb                  |
 *----------------------------------------------------------------------------*
  
 Starting a new Wannier90 calculation ...

 Time to get kmesh              0.088 (sec)

 Reading overlaps from wannier90.mmn    : File generated by VASP: SnS2

 Reading projections from wannier90.amn : File generated by VASP: SnS2

 Time to read overlaps         20.392 (sec)

 Writing checkpoint file wannier90.chk... done

 
 *------------------------------- WANNIERISE ---------------------------------*
 +--------------------------------------------------------------------+<-- CONV
 | Iter  Delta Spread     RMS Gradient      Spread (Ang^2)      Time  |<-- CONV
 +--------------------------------------------------------------------+<-- CONV
 
 ------------------------------------------------------------------------------
 Initial State
  WF centre and spread    1  (  1.782550,  0.296027,  2.765613 )    16.90144916
  WF centre and spread    2  (  0.859560,  0.878737,  1.927934 )     4.17694753
  WF centre and spread    3  (  2.531902,  0.260844,  3.137935 )     7.80773880
  WF centre and spread    4  (  0.450279,  1.434388,  0.439397 )     2.81574983
  WF centre and spread    5  ( -0.829905,  2.450483,  1.515321 )     4.75757674
  WF centre and spread    6  (  0.140792,  1.829406,  3.129665 )    21.12912813
  WF centre and spread    7  (  0.112086,  2.492679,  0.636193 )     4.68187684
  WF centre and spread    8  (  0.573948,  1.611683,  3.991234 )    13.41124322
  WF centre and spread    9  ( -1.002250,  2.944518,  5.130514 )     4.39244748
  WF centre and spread   10  (  2.964711,  1.214646,  2.143244 )     4.18139162
  WF centre and spread   11  ( -0.461598,  1.622555,  4.930703 )     7.78601953
  WF centre and spread   12  ( -1.618601,  3.099955,  5.948217 )     3.70473506
  WF centre and spread   13  (  2.069037,  0.712395,  1.764088 )     7.03528284
  WF centre and spread   14  ( -0.452825,  2.022154,  5.918544 )     5.55458142
  WF centre and spread   15  (  1.675497,  1.698147,  4.477924 )     4.61725049
  WF centre and spread   16  (  1.124625,  2.947583,  5.221281 )     5.49059546
  WF centre and spread   17  ( -0.499768,  1.700180,  3.846187 )     9.63424681
  WF centre and spread   18  (  2.234317,  1.166051,  4.065833 )     3.82544188
  WF centre and spread   19  (  1.196047,  2.406008,  1.124427 )     2.41554462
  WF centre and spread   20  (  1.956214,  2.750853,  1.774928 )     8.03336957
  WF centre and spread   21  ( -1.436637,  2.331959,  5.857559 )     6.30669677
  WF centre and spread   22  ( -0.216484,  1.001534,  1.017835 )     6.17320709
  WF centre and spread   23  (  1.764194,  1.704752,  0.367466 )     3.97750246
  WF centre and spread   24  (  2.179123,  2.094403,  4.929555 )     5.94818393
  WF centre and spread   25  (  0.874253,  0.088105,  3.227409 )    10.49845129
  WF centre and spread   26  ( -0.056056,  2.649303,  3.861553 )    10.07642353
  WF centre and spread   27  (  0.950947,  3.138469,  1.962551 )     5.79315799
  WF centre and spread   28  (  1.558371,  1.192502,  3.836742 )     4.67722698
  WF centre and spread   29  ( -1.461402,  2.969841,  0.816591 )    12.22857413
  WF centre and spread   30  (  2.416249,  1.053226,  4.819524 )     2.07192538
  WF centre and spread   31  ( -0.201023,  0.464702,  0.659495 )     4.32445012
  WF centre and spread   32  (  0.970697,  2.009276,  4.586840 )    11.60906643
  WF centre and spread   33  ( -0.193805,  3.095923,  5.583697 )     3.63463730
  WF centre and spread   34  (  0.742179,  0.969246,  4.549103 )     5.11091250
  WF centre and spread   35  (  1.823880,  0.504249,  4.084911 )     6.06581186
  WF centre and spread   36  (  0.243821,  2.165984,  5.148517 )     6.81604478
  WF centre and spread   37  ( -0.544723,  1.834364,  0.898954 )     7.35919020
  WF centre and spread   38  (  0.026482,  2.755968,  1.443758 )     1.47774682
  WF centre and spread   39  (  0.533253,  0.564784,  0.549068 )     5.89227003
  WF centre and spread   40  (  1.953280,  2.195622,  2.043614 )     8.52261727
  WF centre and spread   41  (  1.690870,  2.646664,  3.052673 )     9.57054968
  WF centre and spread   42  (  1.491531,  2.132902,  3.970711 )     8.98741168
  WF centre and spread   43  ( -1.248065,  2.447551,  0.414573 )     7.61480309
  WF centre and spread   44  (  1.478726,  0.694311,  4.818316 )     1.80163149
  WF centre and spread   45  ( -0.501347,  2.076830,  2.502701 )     7.85418482
  WF centre and spread   46  (  0.039005,  0.931833,  5.539362 )     5.66109086
  WF centre and spread   47  ( -0.134601,  0.406511,  4.794375 )     3.27482037
  WF centre and spread   48  (  1.103725,  3.114719,  3.991890 )     7.00549452
  WF centre and spread   49  (  0.332073,  0.284372,  5.672623 )     2.33503190
  WF centre and spread   50  ( -0.467306,  1.645434,  1.430119 )     7.54913518
  WF centre and spread   51  (  0.314195,  1.075195,  2.838459 )    15.38310349
  WF centre and spread   52  (  2.495471,  0.321592,  0.705076 )     2.58120920
  WF centre and spread   53  (  0.396503,  2.493349,  2.499800 )     6.13148417
  WF centre and spread   54  (  1.283668,  2.315964,  0.127305 )     7.66644527
  WF centre and spread   55  ( -1.094019,  2.848140,  4.015118 )     8.57993292
  WF centre and spread   56  (  1.462622,  1.338244,  1.254397 )     6.20913232
  WF centre and spread   57  ( -0.978376,  3.162973,  0.924141 )    12.13240270
  WF centre and spread   58  (  1.500289,  1.096460,  5.541684 )     2.51050179
  WF centre and spread   59  ( -0.988616,  2.341799,  3.020633 )    15.73510751
  WF centre and spread   60  (  0.922647,  2.763383,  0.162884 )     6.62214761
  WF centre and spread   61  ( -1.627880,  3.218019,  0.082951 )     2.45342541
  WF centre and spread   62  (  3.049222,  0.487099,  5.835937 )     1.59664298
  WF centre and spread   63  (  1.721997,  1.182237,  2.602790 )     8.39871708
  WF centre and spread   64  (  1.518657,  2.807648,  5.789150 )     4.99909466
  Sum of centres and spreads ( 40.494205,114.156732,195.721589 )   433.57021458
 
      0     0.434E+03     0.0000000000      433.5702035588      22.80  <-- CONV
        O_D=      4.8903326 O_OD=    317.0678989 O_TOT=    433.5702036 <-- SPRD
 ------------------------------------------------------------------------------
 Cycle:      1
  WF centre and spread    1  (  1.816018,  0.268434,  2.758600 )    15.03292297
  WF centre and spread    2  (  0.842953,  0.883852,  1.914006 )     3.85318287
  WF centre and spread    3  (  2.546592,  0.267451,  3.168739 )     6.81491859
  WF centre and spread    4  (  0.448292,  1.440171,  0.458704 )     2.62627319
  WF centre and spread    5  ( -0.795479,  2.448476,  1.503603 )     4.10396406
  WF centre and spread    6  (  0.119080,  1.842428,  3.093689 )    18.08098323
  WF centre and spread    7  (  0.119782,  2.469523,  0.643879 )     4.09005211
  WF centre and spread    8  (  0.584212,  1.601424,  4.018937 )    11.59711452
  WF centre and spread    9  ( -1.027822,  2.953928,  5.160202 )     3.87642565
  WF centre and spread   10  (  2.976903,  1.218964,  2.127518 )     3.74057632
  WF centre and spread   11  ( -0.455990,  1.610336,  4.956394 )     6.92140830
  WF centre and spread   12  ( -1.624365,  3.104314,  5.943400 )     2.78276692
  WF centre and spread   13  (  2.066495,  0.710772,  1.739363 )     6.14512289
  WF centre and spread   14  ( -0.451736,  2.020902,  5.933951 )     5.02535111
  WF centre and spread   15  (  1.681377,  1.697193,  4.501694 )     3.68203035
  WF centre and spread   16  (  1.150037,  2.957500,  5.235723 )     4.64891401
  WF centre and spread   17  ( -0.487394,  1.681078,  3.865345 )     8.60473032
  WF centre and spread   18  (  2.229077,  1.167652,  4.085367 )     3.04851946
  WF centre and spread   19  (  1.173940,  2.409968,  1.120237 )     2.26184143
  WF centre and spread   20  (  1.946042,  2.757160,  1.740688 )     6.96820467
  WF centre and spread   21  ( -1.454093,  2.344256,  5.865330 )     5.15237982
  WF centre and spread   22  ( -0.208109,  1.020767,  1.022485 )     5.24092200
  WF centre and spread   23  (  1.776908,  1.723989,  0.352826 )     3.63082374
  WF centre and spread   24  (  2.169391,  2.083016,  4.947487 )     5.03183591
  WF centre and spread   25  (  0.861860,  0.079511,  3.215570 )     9.16168889
  WF centre and spread   26  ( -0.033419,  2.638674,  3.893149 )     8.99993175
  WF centre and spread   27  (  0.949696,  3.147337,  1.941443 )     5.13514449
  WF centre and spread   28  (  1.563823,  1.189467,  3.879388 )     3.84189872
  WF centre and spread   29  ( -1.470502,  3.001678,  0.766632 )     9.20105826
  WF centre and spread   30  (  2.409462,  1.042327,  4.825753 )     1.68809947
  WF centre and spread   31  ( -0.208722,  0.464095,  0.648959 )     3.59666790
  WF centre and spread   32  (  1.003065,  2.004628,  4.609497 )     9.75886712
  WF centre and spread   33  ( -0.193508,  3.111882,  5.589370 )     3.35221128
  WF centre and spread   34  (  0.780685,  0.944685,  4.589961 )     4.23845219
  WF centre and spread   35  (  1.829026,  0.534535,  4.125587 )     4.80440934
  WF centre and spread   36  (  0.244321,  2.171343,  5.178174 )     5.98979685
  WF centre and spread   37  ( -0.521528,  1.820420,  0.909665 )     5.94807891
  WF centre and spread   38  (  0.028513,  2.748707,  1.441495 )     1.35040016
  WF centre and spread   39  (  0.533558,  0.576135,  0.535853 )     4.73639435
  WF centre and spread   40  (  1.934883,  2.206988,  1.972417 )     7.47279833
  WF centre and spread   41  (  1.678473,  2.653024,  3.088996 )     8.87325667
  WF centre and spread   42  (  1.482653,  2.079125,  4.050309 )     7.81750083
  WF centre and spread   43  ( -1.265816,  2.472149,  0.423553 )     6.11823623
  WF centre and spread   44  (  1.484287,  0.686020,  4.824190 )     1.57003220
  WF centre and spread   45  ( -0.493541,  2.060839,  2.447161 )     6.49347045
  WF centre and spread   46  (  0.035534,  0.914198,  5.557255 )     4.98415639
  WF centre and spread   47  ( -0.123526,  0.412725,  4.812405 )     3.00791970
  WF centre and spread   48  (  1.114677,  3.125401,  4.015000 )     6.18134565
  WF centre and spread   49  (  0.328585,  0.270275,  5.685024 )     1.96596917
  WF centre and spread   50  ( -0.449328,  1.647929,  1.438622 )     5.87730336
  WF centre and spread   51  (  0.331966,  1.039047,  2.804738 )    12.53819858
  WF centre and spread   52  (  2.500808,  0.321261,  0.695463 )     2.49484617
  WF centre and spread   53  (  0.389235,  2.466910,  2.460152 )     5.23086556
  WF centre and spread   54  (  1.291940,  2.320365,  0.121616 )     6.04313853
  WF centre and spread   55  ( -1.114125,  2.856228,  4.056978 )     7.44166123
  WF centre and spread   56  (  1.435269,  1.346208,  1.232680 )     5.60238577
  WF centre and spread   57  ( -0.958316,  3.190214,  0.928302 )     9.87547789
  WF centre and spread   58  (  1.507156,  1.090507,  5.515458 )     2.33546629
  WF centre and spread   59  ( -1.012526,  2.297385,  2.982639 )    13.71426245
  WF centre and spread   60  (  0.933567,  2.786213,  0.151475 )     5.46305696
  WF centre and spread   61  ( -1.639235,  3.216127,  0.072928 )     1.98709292
  WF centre and spread   62  (  3.048843,  0.482224,  5.842985 )     1.54773347
  WF centre and spread   63  (  1.704113,  1.200977,  2.610173 )     7.28513404
  WF centre and spread   64  (  1.531799,  2.828634,  5.806720 )     3.90745019
  Sum of centres and spreads ( 40.595819,114.129948,195.905900 )   370.59312316
 
      1    -0.630E+02     8.8176734252      370.5931121413      34.97  <-- CONV
        O_D=      5.0815790 O_OD=    253.8995611 O_TOT=    370.5931121 <-- SPRD
 Delta: O_D=  0.1912464E+00 O_OD= -0.6316834E+02 O_TOT= -0.6297709E+02 <-- DLTA
 ------------------------------------------------------------------------------
 Cycle:      2
  WF centre and spread    1  (  1.817684,  0.228347,  2.739924 )    14.55645681
  WF centre and spread    2  (  0.828179,  0.887787,  1.905035 )     3.72942072
  WF centre and spread    3  (  2.553593,  0.272510,  3.187708 )     6.45879737
  WF centre and spread    4  (  0.447554,  1.447861,  0.476576 )     2.60101211
  WF centre and spread    5  ( -0.770836,  2.448559,  1.498742 )     3.73564573
  WF centre and spread    6  (  0.106473,  1.853836,  3.115646 )    16.48882461
  WF centre and spread    7  (  0.124810,  2.444780,  0.652639 )     3.87928895
  WF centre and spread    8  (  0.586947,  1.589819,  4.027728 )    10.93981683
  WF centre and spread    9  ( -1.051601,  2.958883,  5.179242 )     3.59212377
  WF centre and spread   10  (  2.984054,  1.223428,  2.113070 )     3.58096432
  WF centre and spread   11  ( -0.454728,  1.597004,  4.961871 )     6.58428801
  WF centre and spread   12  ( -1.629436,  3.107010,  5.945123 )     2.28088981
  WF centre and spread   13  (  2.062707,  0.705400,  1.723611 )     5.79534228
  WF centre and spread   14  ( -0.449025,  2.017010,  5.944394 )     4.81670439
  WF centre and spread   15  (  1.684293,  1.695186,  4.515553 )     3.19182489
  WF centre and spread   16  (  1.170568,  2.960068,  5.246782 )     4.27478703
  WF centre and spread   17  ( -0.476029,  1.662158,  3.878442 )     8.29440328
  WF centre and spread   18  (  2.228163,  1.169043,  4.099081 )     2.57102088
  WF centre and spread   19  (  1.154518,  2.413964,  1.115317 )     2.18098229
  WF centre and spread   20  (  1.932997,  2.758158,  1.716713 )     6.51293470
  WF centre and spread   21  ( -1.465422,  2.351373,  5.868607 )     4.55824244
  WF centre and spread   22  ( -0.199920,  1.037514,  1.030281 )     4.85833114
  WF centre and spread   23  (  1.786991,  1.741203,  0.345390 )     3.49909853
  WF centre and spread   24  (  2.160139,  2.065054,  4.955775 )     4.58872427
  WF centre and spread   25  (  0.860548,  0.073697,  3.208523 )     8.60487684
  WF centre and spread   26  ( -0.012839,  2.633866,  3.910255 )     8.54829315
  WF centre and spread   27  (  0.949921,  3.156584,  1.927634 )     4.88469677
  WF centre and spread   28  (  1.573848,  1.181699,  3.908516 )     3.37538196
  WF centre and spread   29  ( -1.482343,  3.031599,  0.717925 )     7.60631124
  WF centre and spread   30  (  2.403224,  1.033508,  4.827556 )     1.48446511
  WF centre and spread   31  ( -0.214273,  0.463790,  0.647520 )     3.27545712
  WF centre and spread   32  (  1.034677,  1.996712,  4.633412 )     8.92051702
  WF centre and spread   33  ( -0.191793,  3.124908,  5.595005 )     3.28884116
  WF centre and spread   34  (  0.817293,  0.930887,  4.611813 )     3.79313451
  WF centre and spread   35  (  1.835659,  0.552951,  4.149802 )     4.09500906
  WF centre and spread   36  (  0.245950,  2.171494,  5.199504 )     5.62971274
  WF centre and spread   37  ( -0.498439,  1.808002,  0.921976 )     5.23361542
  WF centre and spread   38  (  0.030187,  2.742682,  1.439242 )     1.30873968
  WF centre and spread   39  (  0.535003,  0.583527,  0.527817 )     4.14769412
  WF centre and spread   40  (  1.916475,  2.215472,  1.927744 )     7.01305050
  WF centre and spread   41  (  1.675140,  2.661008,  3.124614 )     8.59549314
  WF centre and spread   42  (  1.477233,  2.037327,  4.111780 )     7.28175832
  WF centre and spread   43  ( -1.282314,  2.495297,  0.423696 )     5.33763367
  WF centre and spread   44  (  1.489410,  0.677850,  4.828036 )     1.44132792
  WF centre and spread   45  ( -0.485870,  2.049956,  2.415819 )     5.88646102
  WF centre and spread   46  (  0.032257,  0.898880,  5.571896 )     4.67807203
  WF centre and spread   47  ( -0.113970,  0.415592,  4.823243 )     2.87338908
  WF centre and spread   48  (  1.121548,  3.135372,  4.029615 )     5.80612371
  WF centre and spread   49  (  0.323630,  0.258685,  5.698274 )     1.71761583
  WF centre and spread   50  ( -0.433328,  1.652676,  1.441711 )     4.99619714
  WF centre and spread   51  (  0.342113,  1.029443,  2.795084 )    11.22243013
  WF centre and spread   52  (  2.504333,  0.318457,  0.689609 )     2.50929906
  WF centre and spread   53  (  0.382389,  2.440191,  2.427080 )     4.84609043
  WF centre and spread   54  (  1.298560,  2.320869,  0.115559 )     5.17385161
  WF centre and spread   55  ( -1.126577,  2.863561,  4.080923 )     6.90865369
  WF centre and spread   56  (  1.414125,  1.350066,  1.222882 )     5.35147666
  WF centre and spread   57  ( -0.948347,  3.218738,  0.911662 )     8.90273149
  WF centre and spread   58  (  1.514860,  1.085411,  5.496786 )     2.27855554
  WF centre and spread   59  ( -1.034691,  2.261797,  2.955409 )    12.91635663
  WF centre and spread   60  (  0.940813,  2.801037,  0.139374 )     4.92376634
  WF centre and spread   61  ( -1.648573,  3.213441,  0.067312 )     1.70906324
  WF centre and spread   62  (  3.049510,  0.477403,  5.849373 )     1.53957473
  WF centre and spread   63  (  1.683882,  1.216277,  2.622514 )     6.77589393
  WF centre and spread   64  (  1.543265,  2.842614,  5.818473 )     3.35725769
  Sum of centres and spreads ( 40.655170,114.059283,196.058220 )   341.80879459
 
      2    -0.288E+02     8.4053038700      341.8087835794      48.51  <-- CONV
        O_D=      3.3994804 O_OD=    226.7973311 O_TOT=    341.8087836 <-- SPRD
 Delta: O_D= -0.1682099E+01 O_OD= -0.2710223E+02 O_TOT= -0.2878433E+02 <-- DLTA
 ------------------------------------------------------------------------------
 Cycle:      3
  WF centre and spread    1  (  1.812680,  0.193414,  2.723604 )    13.90264316
  WF centre and spread    2  (  0.818063,  0.889358,  1.900561 )     3.65341739
  WF centre and spread    3  (  2.555500,  0.276781,  3.198306 )     6.11932983
  WF centre and spread    4  (  0.447657,  1.455369,  0.490363 )     2.57752994
  WF centre and spread    5  ( -0.755863,  2.448311,  1.498112 )     3.48847340
  WF centre and spread    6  (  0.095208,  1.866706,  3.100879 )    14.88290847
  WF centre and spread    7  (  0.127778,  2.426812,  0.660421 )     3.68061586
  WF centre and spread    8  (  0.591003,  1.582363,  4.031442 )    10.31151920
  WF centre and spread    9  ( -1.067747,  2.961708,  5.190832 )     3.40039934
  WF centre and spread   10  (  2.987837,  1.226938,  2.102119 )     3.47011610
  WF centre and spread   11  ( -0.454020,  1.588443,  4.961985 )     6.29448037
  WF centre and spread   12  ( -1.633664,  3.108124,  5.947050 )     1.99169841
  WF centre and spread   13  (  2.059180,  0.700482,  1.712823 )     5.52513121
  WF centre and spread   14  ( -0.444338,  2.013504,  5.948690 )     4.67127111
  WF centre and spread   15  (  1.684859,  1.694230,  4.522963 )     2.88823408
  WF centre and spread   16  (  1.183805,  2.957279,  5.253484 )     4.00289714
  WF centre and spread   17  ( -0.468523,  1.650977,  3.880540 )     7.95338722
  WF centre and spread   18  (  2.228505,  1.169786,  4.105116 )     2.28774005
  WF centre and spread   19  (  1.141357,  2.416773,  1.113433 )     2.14408521
  WF centre and spread   20  (  1.922426,  2.757319,  1.701932 )     6.11597591
  WF centre and spread   21  ( -1.471897,  2.354040,  5.870997 )     4.17952862
  WF centre and spread   22  ( -0.192964,  1.049653,  1.038363 )     4.55177627
  WF centre and spread   23  (  1.792651,  1.753205,  0.341231 )     3.37890550
  WF centre and spread   24  (  2.153561,  2.051036,  4.960181 )     4.29638528
  WF centre and spread   25  (  0.863768,  0.069738,  3.205065 )     8.10909982
  WF centre and spread   26  (  0.002135,  2.635810,  3.918833 )     8.12259530
  WF centre and spread   27  (  0.949478,  3.164860,  1.917725 )     4.69873597
  WF centre and spread   28  (  1.581377,  1.174559,  3.923575 )     3.05950392
  WF centre and spread   29  ( -1.490448,  3.049581,  0.689489 )     6.39514172
  WF centre and spread   30  (  2.399075,  1.028097,  4.827281 )     1.36807598
  WF centre and spread   31  ( -0.217175,  0.463785,  0.647874 )     3.07848930
  WF centre and spread   32  (  1.060234,  1.989250,  4.651502 )     8.24387290
  WF centre and spread   33  ( -0.190009,  3.134163,  5.599353 )     3.25759200
  WF centre and spread   34  (  0.844718,  0.926198,  4.624420 )     3.49281457
  WF centre and spread   35  (  1.840233,  0.562792,  4.160433 )     3.66696884
  WF centre and spread   36  (  0.250241,  2.167822,  5.210888 )     5.37355583
  WF centre and spread   37  ( -0.482209,  1.796580,  0.930981 )     4.70544149
  WF centre and spread   38  (  0.031957,  2.739352,  1.437492 )     1.27454922
  WF centre and spread   39  (  0.537566,  0.587195,  0.524260 )     3.78875833
  WF centre and spread   40  (  1.903254,  2.220398,  1.899363 )     6.63399933
  WF centre and spread   41  (  1.674155,  2.666097,  3.146389 )     8.29638960
  WF centre and spread   42  (  1.472970,  2.012689,  4.155308 )     6.85150908
  WF centre and spread   43  ( -1.293998,  2.512244,  0.423652 )     4.74376424
  WF centre and spread   44  (  1.493051,  0.672021,  4.830683 )     1.36277537
  WF centre and spread   45  ( -0.479876,  2.042023,  2.393624 )     5.43751000
  WF centre and spread   46  (  0.029653,  0.887845,  5.581107 )     4.43845127
  WF centre and spread   47  ( -0.108441,  0.415232,  4.829465 )     2.78413760
  WF centre and spread   48  (  1.124849,  3.141897,  4.038997 )     5.51281738
  WF centre and spread   49  (  0.319079,  0.251043,  5.708533 )     1.58163528
  WF centre and spread   50  ( -0.421974,  1.653417,  1.446118 )     4.35419871
  WF centre and spread   51  (  0.344890,  1.033008,  2.777550 )    10.03776707
  WF centre and spread   52  (  2.505785,  0.315385,  0.686631 )     2.51868919
  WF centre and spread   53  (  0.376325,  2.420096,  2.404358 )     4.56488078
  WF centre and spread   54  (  1.303476,  2.320598,  0.113720 )     4.63566873
  WF centre and spread   55  ( -1.133375,  2.869084,  4.095277 )     6.50077440
  WF centre and spread   56  (  1.401121,  1.349697,  1.219094 )     5.15778918
  WF centre and spread   57  ( -0.940680,  3.236958,  0.903464 )     8.11453922
  WF centre and spread   58  (  1.520208,  1.082235,  5.485141 )     2.23617740
  WF centre and spread   59  ( -1.048749,  2.234390,  2.901090 )    12.32227023
  WF centre and spread   60  (  0.945921,  2.808241,  0.133051 )     4.56475189
  WF centre and spread   61  ( -1.654446,  3.211037,  0.063969 )     1.54959007
  WF centre and spread   62  (  3.050438,  0.473748,  5.854230 )     1.53206203
  WF centre and spread   63  (  1.667223,  1.224886,  2.631545 )     6.36554787
  WF centre and spread   64  (  1.551494,  2.850164,  5.827453 )     3.03925085
  Sum of centres and spreads ( 40.696343,113.986824,196.074408 )   319.54059106
 
      3    -0.223E+02     6.6238396001      319.5405800513      62.05  <-- CONV
        O_D=      3.0069669 O_OD=    204.9216410 O_TOT=    319.5405801 <-- SPRD
 Delta: O_D= -0.3925134E+00 O_OD= -0.2187569E+02 O_TOT= -0.2226820E+02 <-- DLTA
 ------------------------------------------------------------------------------
 Cycle:      4
  WF centre and spread    1  (  1.804404,  0.158550,  2.704306 )    13.53675908
  WF centre and spread    2  (  0.808930,  0.889519,  1.896870 )     3.61906739
  WF centre and spread    3  (  2.554616,  0.280909,  3.206849 )     5.90368182
  WF centre and spread    4  (  0.448138,  1.464669,  0.504103 )     2.59427860
  WF centre and spread    5  ( -0.743092,  2.446932,  1.499120 )     3.31520238
  WF centre and spread    6  (  0.085508,  1.882181,  3.104093 )    14.17729144
  WF centre and spread    7  (  0.129995,  2.409883,  0.668773 )     3.56199211
  WF centre and spread    8  (  0.595756,  1.575095,  4.029555 )     9.94677908
  WF centre and spread    9  ( -1.082976,  2.963926,  5.201321 )     3.27705050
  WF centre and spread   10  (  2.990011,  1.230411,  2.091173 )     3.43916188
  WF centre and spread   11  ( -0.453255,  1.580961,  4.961574 )     6.11550666
  WF centre and spread   12  ( -1.638648,  3.109131,  5.948330 )     1.79373505
  WF centre and spread   13  (  2.055777,  0.695621,  1.702387 )     5.38038475
  WF centre and spread   14  ( -0.436830,  2.008918,  5.951850 )     4.60948980
  WF centre and spread   15  (  1.684611,  1.694508,  4.528236 )     2.68825371
  WF centre and spread   16  (  1.194645,  2.951963,  5.258008 )     3.83899818
  WF centre and spread   17  ( -0.461870,  1.639208,  3.881065 )     7.71816900
  WF centre and spread   18  (  2.229341,  1.170237,  4.109400 )     2.08263896
  WF centre and spread   19  (  1.129703,  2.419542,  1.112274 )     2.13970050
  WF centre and spread   20  (  1.910964,  2.755219,  1.688238 )     5.81022276
  WF centre and spread   21  ( -1.476770,  2.354716,  5.871210 )     3.93672290
  WF centre and spread   22  ( -0.185347,  1.061265,  1.048711 )     4.38208416
  WF centre and spread   23  (  1.796903,  1.763505,  0.337385 )     3.33176172
  WF centre and spread   24  (  2.148227,  2.037825,  4.963327 )     4.11692260
  WF centre and spread   25  (  0.866972,  0.065559,  3.203664 )     7.78218731
  WF centre and spread   26  (  0.014312,  2.642217,  3.926332 )     7.81162654
  WF centre and spread   27  (  0.948107,  3.173568,  1.908115 )     4.59486029
  WF centre and spread   28  (  1.588827,  1.167296,  3.934841 )     2.83030699
  WF centre and spread   29  ( -1.498317,  3.064267,  0.663660 )     5.55467299
  WF centre and spread   30  (  2.395527,  1.023701,  4.826025 )     1.29200406
  WF centre and spread   31  ( -0.219523,  0.464591,  0.650111 )     2.98250413
  WF centre and spread   32  (  1.088720,  1.982912,  4.667491 )     7.78340755
  WF centre and spread   33  ( -0.188433,  3.142988,  5.604416 )     3.26987649
  WF centre and spread   34  (  0.872616,  0.924929,  4.634371 )     3.28065360
  WF centre and spread   35  (  1.844416,  0.570550,  4.168214 )     3.35815823
  WF centre and spread   36  (  0.257174,  2.162055,  5.217523 )     5.22230782
  WF centre and spread   37  ( -0.465909,  1.784956,  0.943191 )     4.35980161
  WF centre and spread   38  (  0.034268,  2.737068,  1.435648 )     1.25775134
  WF centre and spread   39  (  0.540650,  0.589666,  0.522346 )     3.61043097
  WF centre and spread   40  (  1.890090,  2.224446,  1.875290 )     6.38155202
  WF centre and spread   41  (  1.671693,  2.669710,  3.160759 )     8.11248398
  WF centre and spread   42  (  1.467987,  1.994346,  4.194685 )     6.58259957
  WF centre and spread   43  ( -1.305237,  2.528710,  0.423233 )     4.35879648
  WF centre and spread   44  (  1.496728,  0.666468,  4.833376 )     1.30824302
  WF centre and spread   45  ( -0.473289,  2.036213,  2.373615 )     5.15463513
  WF centre and spread   46  (  0.028669,  0.876848,  5.588601 )     4.29487376
  WF centre and spread   47  ( -0.104465,  0.412824,  4.835148 )     2.74253222
  WF centre and spread   48  (  1.127453,  3.146057,  4.048894 )     5.32047988
  WF centre and spread   49  (  0.313942,  0.243732,  5.718802 )     1.47872373
  WF centre and spread   50  ( -0.410622,  1.652221,  1.453070 )     3.93073743
  WF centre and spread   51  (  0.343779,  1.045475,  2.761804 )     9.39418412
  WF centre and spread   52  (  2.506878,  0.312086,  0.684582 )     2.54817744
  WF centre and spread   53  (  0.370352,  2.400171,  2.382828 )     4.40028771
  WF centre and spread   54  (  1.308360,  2.320025,  0.111651 )     4.29782674
  WF centre and spread   55  ( -1.138434,  2.874134,  4.107386 )     6.24116256
  WF centre and spread   56  (  1.390390,  1.346293,  1.216043 )     5.05026076
  WF centre and spread   57  ( -0.931529,  3.252595,  0.899582 )     7.70824900
  WF centre and spread   58  (  1.525329,  1.079619,  5.474601 )     2.21429427
  WF centre and spread   59  ( -1.060320,  2.209837,  2.893922 )    11.59104365
  WF centre and spread   60  (  0.951393,  2.812488,  0.128175 )     4.33705943
  WF centre and spread   61  ( -1.660147,  3.208425,  0.060946 )     1.43539668
  WF centre and spread   62  (  3.051559,  0.470082,  5.858921 )     1.53249997
  WF centre and spread   63  (  1.649204,  1.231674,  2.640850 )     6.08360482
  WF centre and spread   64  (  1.559489,  2.856020,  5.834257 )     2.83848596
  Sum of centres and spreads ( 40.737400,113.911514,196.135127 )   305.64459530
 
      4    -0.139E+02     4.7696467577      305.6445842924      75.59  <-- CONV
        O_D=      2.6103995 O_OD=    191.4222128 O_TOT=    305.6445843 <-- SPRD
 Delta: O_D= -0.3965675E+00 O_OD= -0.1349943E+02 O_TOT= -0.1389600E+02 <-- DLTA
 ------------------------------------------------------------------------------
 Cycle:      5
  WF centre and spread    1  (  1.797515,  0.115895,  2.686702 )    13.38340061
  WF centre and spread    2  (  0.800421,  0.888627,  1.893264 )     3.63667573
  WF centre and spread    3  (  2.552968,  0.284825,  3.215608 )     5.74784574
  WF centre and spread    4  (  0.449521,  1.475997,  0.518941 )     2.66200283
  WF centre and spread    5  ( -0.729914,  2.444981,  1.501898 )     3.20160137
  WF centre and spread    6  (  0.078269,  1.896162,  3.111683 )    13.58059637
  WF centre and spread    7  (  0.132129,  2.392067,  0.678325 )     3.50385610
  WF centre and spread    8  (  0.600575,  1.566915,  4.023606 )     9.72481091
  WF centre and spread    9  ( -1.099157,  2.966210,  5.212793 )     3.21977452
  WF centre and spread   10  (  2.991532,  1.233409,  2.079871 )     3.46060195
  WF centre and spread   11  ( -0.451476,  1.573748,  4.960690 )     6.01700564
  WF centre and spread   12  ( -1.644697,  3.110108,  5.949300 )     1.64336119
  WF centre and spread   13  (  2.053138,  0.689418,  1.691900 )     5.32217263
  WF centre and spread   14  ( -0.426528,  2.003371,  5.955485 )     4.63653347
  WF centre and spread   15  (  1.683980,  1.695241,  4.532630 )     2.53860527
  WF centre and spread   16  (  1.204428,  2.945461,  5.261189 )     3.75116256
  WF centre and spread   17  ( -0.454800,  1.624006,  3.879853 )     7.56285700
  WF centre and spread   18  (  2.230435,  1.170391,  4.113466 )     1.93742602
  WF centre and spread   19  (  1.118661,  2.422563,  1.111138 )     2.18099927
  WF centre and spread   20  (  1.897935,  2.751422,  1.672941 )     5.60594279
  WF centre and spread   21  ( -1.481774,  2.355245,  5.870556 )     3.78732694
  WF centre and spread   22  ( -0.176192,  1.073631,  1.062402 )     4.28983712
  WF centre and spread   23  (  1.800188,  1.773142,  0.332939 )     3.34912064
  WF centre and spread   24  (  2.143289,  2.024133,  4.965376 )     4.01722466
  WF centre and spread   25  (  0.869779,  0.060316,  3.204524 )     7.54887507
  WF centre and spread   26  (  0.024370,  2.648513,  3.934460 )     7.55024966
  WF centre and spread   27  (  0.946213,  3.182278,  1.899488 )     4.56726926
  WF centre and spread   28  (  1.596439,  1.160095,  3.946635 )     2.67748485
  WF centre and spread   29  ( -1.508028,  3.074653,  0.636973 )     4.88419678
  WF centre and spread   30  (  2.392107,  1.019423,  4.824281 )     1.24704244
  WF centre and spread   31  ( -0.221870,  0.466116,  0.654016 )     2.94052459
  WF centre and spread   32  (  1.121558,  1.977535,  4.683261 )     7.40423692
  WF centre and spread   33  ( -0.187636,  3.151788,  5.610644 )     3.32986030
  WF centre and spread   34  (  0.903517,  0.925235,  4.645128 )     3.13085649
  WF centre and spread   35  (  1.848226,  0.576764,  4.175412 )     3.12256029
  WF centre and spread   36  (  0.266281,  2.154296,  5.222172 )     5.12594089
  WF centre and spread   37  ( -0.447619,  1.772834,  0.960575 )     4.10034606
  WF centre and spread   38  (  0.037355,  2.735317,  1.433516 )     1.26167985
  WF centre and spread   39  (  0.543828,  0.591400,  0.520267 )     3.51385532
  WF centre and spread   40  (  1.876400,  2.229054,  1.851818 )     6.25519047
  WF centre and spread   41  (  1.667330,  2.671819,  3.170794 )     8.01127446
  WF centre and spread   42  (  1.461270,  1.978754,  4.232403 )     6.42348135
  WF centre and spread   43  ( -1.317966,  2.546695,  0.423581 )     4.06245051
  WF centre and spread   44  (  1.500952,  0.660638,  4.836504 )     1.27735617
  WF centre and spread   45  ( -0.466613,  2.031015,  2.354390 )     4.95284677
  WF centre and spread   46  (  0.029533,  0.864652,  5.595872 )     4.21065435
  WF centre and spread   47  ( -0.101019,  0.408819,  4.841393 )     2.74452573
  WF centre and spread   48  (  1.129663,  3.147703,  4.059391 )     5.19699446
  WF centre and spread   49  (  0.307790,  0.235898,  5.729681 )     1.40731032
  WF centre and spread   50  ( -0.397228,  1.649514,  1.462653 )     3.58873615
  WF centre and spread   51  (  0.341850,  1.060209,  2.745621 )     8.82855321
  WF centre and spread   52  (  2.508697,  0.308591,  0.682722 )     2.61842105
  WF centre and spread   53  (  0.363796,  2.378931,  2.358618 )     4.31269430
  WF centre and spread   54  (  1.313421,  2.319841,  0.108028 )     4.06127473
  WF centre and spread   55  ( -1.142722,  2.878117,  4.118982 )     6.05396873
  WF centre and spread   56  (  1.380018,  1.339851,  1.213223 )     5.01201967
  WF centre and spread   57  ( -0.919365,  3.266505,  0.894807 )     7.44677205
  WF centre and spread   58  (  1.530827,  1.077406,  5.463289 )     2.23199902
  WF centre and spread   59  ( -1.077466,  2.184170,  2.880526 )    11.13147274
  WF centre and spread   60  (  0.957835,  2.816470,  0.123615 )     4.16700744
  WF centre and spread   61  ( -1.666373,  3.205338,  0.057976 )     1.34797056
  WF centre and spread   62  (  3.052806,  0.466210,  5.864016 )     1.55877087
  WF centre and spread   63  (  1.629933,  1.237550,  2.651614 )     5.86098797
  WF centre and spread   64  (  1.567811,  2.862001,  5.839865 )     2.71581555
  Sum of centres and spreads ( 40.786146,113.799283,196.195290 )   296.64426874
 
      5    -0.900E+01     3.8943518501      296.6442577514      89.16  <-- CONV
        O_D=      2.4045192 O_OD=    182.6277665 O_TOT=    296.6442578 <-- SPRD
 Delta: O_D= -0.2058803E+00 O_OD= -0.8794446E+01 O_TOT= -0.9000327E+01 <-- DLTA
 ------------------------------------------------------------------------------
 Cycle:      6
  WF centre and spread    1  (  1.791350,  0.060275,  2.669378 )    13.29710483
  WF centre and spread    2  (  0.792425,  0.886943,  1.890401 )     3.67269390
  WF centre and spread    3  (  2.552047,  0.288277,  3.224239 )     5.59838747
  WF centre and spread    4  (  0.452352,  1.489462,  0.535281 )     2.75189786
  WF centre and spread    5  ( -0.715939,  2.442395,  1.506580 )     3.10833629
  WF centre and spread    6  (  0.077788,  1.912015,  3.113094 )    13.08828306
  WF centre and spread    7  (  0.134158,  2.372941,  0.690307 )     3.46261041
  WF centre and spread    8  (  0.606388,  1.558362,  4.015823 )     9.54524758
  WF centre and spread    9  ( -1.116838,  2.968616,  5.224692 )     3.17758759
  WF centre and spread   10  (  2.992765,  1.235890,  2.068953 )     3.49902074
  WF centre and spread   11  ( -0.448635,  1.566290,  4.958169 )     5.93602601
  WF centre and spread   12  ( -1.652004,  3.111245,  5.949942 )     1.50657195
  WF centre and spread   13  (  2.051247,  0.681878,  1.683024 )     5.30790179
  WF centre and spread   14  ( -0.413574,  1.996797,  5.959716 )     4.70095116
  WF centre and spread   15  (  1.683165,  1.696424,  4.535408 )     2.41111393
  WF centre and spread   16  (  1.213751,  2.938110,  5.264122 )     3.68190661
  WF centre and spread   17  ( -0.448385,  1.605016,  3.877575 )     7.44205830
  WF centre and spread   18  (  2.231658,  1.170461,  4.117904 )     1.80979578
  WF centre and spread   19  (  1.107739,  2.426073,  1.110266 )     2.24459444
  WF centre and spread   20  (  1.883195,  2.746650,  1.656696 )     5.42163386
  WF centre and spread   21  ( -1.487431,  2.356291,  5.870205 )     3.66331131
  WF centre and spread   22  ( -0.165077,  1.087433,  1.079667 )     4.22888228
  WF centre and spread   23  (  1.802732,  1.782516,  0.328602 )     3.40955232
  WF centre and spread   24  (  2.138903,  2.009648,  4.965122 )     3.94670179
  WF centre and spread   25  (  0.871913,  0.053621,  3.207800 )     7.34680995
  WF centre and spread   26  (  0.032235,  2.654280,  3.944044 )     7.29251047
  WF centre and spread   27  (  0.944246,  3.191353,  1.893231 )     4.56495691
  WF centre and spread   28  (  1.604144,  1.152626,  3.959197 )     2.54038274
  WF centre and spread   29  ( -1.520219,  3.081182,  0.608228 )     4.28882108
  WF centre and spread   30  (  2.388788,  1.014854,  4.822341 )     1.21325736
  WF centre and spread   31  ( -0.224205,  0.468549,  0.659647 )     2.93231828
  WF centre and spread   32  (  1.158938,  1.972393,  4.697396 )     7.05291751
  WF centre and spread   33  ( -0.188512,  3.160377,  5.618359 )     3.41578014
  WF centre and spread   34  (  0.937676,  0.926058,  4.656465 )     3.00851830
  WF centre and spread   35  (  1.851392,  0.581721,  4.180758 )     2.91305747
  WF centre and spread   36  (  0.276958,  2.144801,  5.225015 )     5.03559711
  WF centre and spread   37  ( -0.427413,  1.760771,  0.983286 )     3.87328393
  WF centre and spread   38  (  0.041238,  2.733830,  1.431196 )     1.27449757
  WF centre and spread   39  (  0.546841,  0.593107,  0.517932 )     3.45330535
  WF centre and spread   40  (  1.861940,  2.234561,  1.829104 )     6.15817267
  WF centre and spread   41  (  1.662102,  2.674379,  3.175661 )     7.92167994
  WF centre and spread   42  (  1.451445,  1.964888,  4.266570 )     6.33913605
  WF centre and spread   43  ( -1.332111,  2.566084,  0.425397 )     3.80137191
  WF centre and spread   44  (  1.505941,  0.654226,  4.839825 )     1.25865278
  WF centre and spread   45  ( -0.460055,  2.026203,  2.336015 )     4.75690009
  WF centre and spread   46  (  0.032213,  0.851253,  5.602671 )     4.15626474
  WF centre and spread   47  ( -0.098045,  0.403406,  4.848463 )     2.76125734
  WF centre and spread   48  (  1.131146,  3.146874,  4.068182 )     5.10253692
  WF centre and spread   49  (  0.300357,  0.227398,  5.741500 )     1.34599625
  WF centre and spread   50  ( -0.382210,  1.645652,  1.474741 )     3.28660865
  WF centre and spread   51  (  0.341849,  1.076293,  2.726293 )     8.36894123
  WF centre and spread   52  (  2.511701,  0.304866,  0.680948 )     2.71126278
  WF centre and spread   53  (  0.356176,  2.356374,  2.332392 )     4.22819616
  WF centre and spread   54  (  1.319257,  2.320255,  0.103118 )     3.86554286
  WF centre and spread   55  ( -1.146749,  2.880635,  4.129081 )     5.90030200
  WF centre and spread   56  (  1.369341,  1.331089,  1.211886 )     5.00024155
  WF centre and spread   57  ( -0.904050,  3.279132,  0.890046 )     7.26192515
  WF centre and spread   58  (  1.537166,  1.075741,  5.450911 )     2.26936458
  WF centre and spread   59  ( -1.097567,  2.158217,  2.861616 )    10.69943246
  WF centre and spread   60  (  0.965114,  2.821047,  0.118840 )     4.01335051
  WF centre and spread   61  ( -1.673320,  3.201892,  0.054792 )     1.26711061
  WF centre and spread   62  (  3.054205,  0.462009,  5.869785 )     1.59775025
  WF centre and spread   63  (  1.609554,  1.243200,  2.663083 )     5.64161703
  WF centre and spread   64  (  1.576970,  2.868536,  5.845115 )     2.60626967
  Sum of centres and spreads ( 40.850168,113.653738,196.246093 )   289.43806960
 
      6    -0.721E+01     3.5310109279      289.4380586354     102.88  <-- CONV
        O_D=      2.3018458 O_OD=    175.5242407 O_TOT=    289.4380586 <-- SPRD
 Delta: O_D= -0.1026733E+00 O_OD= -0.7103526E+01 O_TOT= -0.7206199E+01 <-- DLTA
 ------------------------------------------------------------------------------
 Cycle:      7
  WF centre and spread    1  (  1.790992,  0.040336,  2.667715 )    13.14142527
  WF centre and spread    2  (  0.791170,  0.885660,  1.890452 )     3.62320891
  WF centre and spread    3  (  2.552530,  0.288822,  3.226163 )     5.46599831
  WF centre and spread    4  (  0.454213,  1.494257,  0.540730 )     2.72790724
  WF centre and spread    5  ( -0.711806,  2.441308,  1.508579 )     3.03714553
  WF centre and spread    6  (  0.078150,  1.918607,  3.114900 )    12.73664797
  WF centre and spread    7  (  0.134321,  2.368042,  0.694959 )     3.39407421
  WF centre and spread    8  (  0.607133,  1.555802,  4.013845 )     9.36368974
  WF centre and spread    9  ( -1.121593,  2.969092,  5.226684 )     3.11148162
  WF centre and spread   10  (  2.992822,  1.235987,  2.067189 )     3.44659969
  WF centre and spread   11  ( -0.447257,  1.565175,  4.957480 )     5.83388499
  WF centre and spread   12  ( -1.654530,  3.111893,  5.950140 )     1.44423562
  WF centre and spread   13  (  2.051249,  0.680022,  1.681662 )     5.22202309
  WF centre and spread   14  ( -0.409186,  1.994269,  5.961102 )     4.65067073
  WF centre and spread   15  (  1.683293,  1.697065,  4.535883 )     2.34249219
  WF centre and spread   16  (  1.215653,  2.935549,  5.264745 )     3.60896972
  WF centre and spread   17  ( -0.445266,  1.600193,  3.875640 )     7.28691959
  WF centre and spread   18  (  2.232315,  1.170477,  4.119138 )     1.74722398
  WF centre and spread   19  (  1.104802,  2.427180,  1.110588 )     2.22002039
  WF centre and spread   20  (  1.878897,  2.745907,  1.652542 )     5.28690144
  WF centre and spread   21  ( -1.489111,  2.356562,  5.870027 )     3.57912880
  WF centre and spread   22  ( -0.161684,  1.092014,  1.086740 )     4.15866609
  WF centre and spread   23  (  1.803116,  1.784550,  0.327190 )     3.37423923
  WF centre and spread   24  (  2.138616,  2.005848,  4.963908 )     3.86430690
  WF centre and spread   25  (  0.871134,  0.050457,  3.211887 )     7.18610332
  WF centre and spread   26  (  0.032773,  2.655406,  3.947849 )     7.09665401
  WF centre and spread   27  (  0.943569,  3.194157,  1.893405 )     4.49303157
  WF centre and spread   28  (  1.606216,  1.150977,  3.962808 )     2.45438648
  WF centre and spread   29  ( -1.524121,  3.082224,  0.599084 )     4.00569413
  WF centre and spread   30  (  2.388371,  1.013485,  4.821924 )     1.18676841
  WF centre and spread   31  ( -0.225231,  0.470403,  0.661830 )     2.89244190
  WF centre and spread   32  (  1.170839,  1.969573,  4.700506 )     6.84740450
  WF centre and spread   33  ( -0.190711,  3.161805,  5.620863 )     3.37749953
  WF centre and spread   34  (  0.948326,  0.925898,  4.660003 )     2.91953555
  WF centre and spread   35  (  1.851717,  0.582546,  4.180887 )     2.81227836
  WF centre and spread   36  (  0.280846,  2.141775,  5.224438 )     4.92018357
  WF centre and spread   37  ( -0.421624,  1.757563,  0.991496 )     3.72530050
  WF centre and spread   38  (  0.042729,  2.733767,  1.430426 )     1.26186455
  WF centre and spread   39  (  0.547068,  0.594459,  0.517513 )     3.38280270
  WF centre and spread   40  (  1.857606,  2.237007,  1.823258 )     6.01423670
  WF centre and spread   41  (  1.659757,  2.675332,  3.173457 )     7.75515771
  WF centre and spread   42  (  1.447400,  1.961526,  4.276848 )     6.21427265
  WF centre and spread   43  ( -1.335403,  2.572035,  0.425671 )     3.66489150
  WF centre and spread   44  (  1.507781,  0.652033,  4.841058 )     1.23349806
  WF centre and spread   45  ( -0.458573,  2.025721,  2.332430 )     4.62557645
  WF centre and spread   46  (  0.033485,  0.848264,  5.603781 )     4.09696395
  WF centre and spread   47  ( -0.097980,  0.401522,  4.850879 )     2.72426673
  WF centre and spread   48  (  1.131165,  3.145009,  4.069028 )     5.01010357
  WF centre and spread   49  (  0.297958,  0.224852,  5.745402 )     1.30274018
  WF centre and spread   50  ( -0.377627,  1.643673,  1.479560 )     3.14008013
  WF centre and spread   51  (  0.340942,  1.080958,  2.718439 )     8.10927944
  WF centre and spread   52  (  2.513164,  0.304071,  0.680254 )     2.69985527
  WF centre and spread   53  (  0.353548,  2.350484,  2.325128 )     4.11740388
  WF centre and spread   54  (  1.320781,  2.320357,  0.101309 )     3.73887191
  WF centre and spread   55  ( -1.148122,  2.879161,  4.130067 )     5.76394928
  WF centre and spread   56  (  1.366662,  1.327489,  1.213743 )     4.92899726
  WF centre and spread   57  ( -0.898056,  3.283104,  0.888069 )     7.10632617
  WF centre and spread   58  (  1.539024,  1.075780,  5.447199 )     2.23716934
  WF centre and spread   59  ( -1.103408,  2.151107,  2.858851 )    10.37231630
  WF centre and spread   60  (  0.967690,  2.822491,  0.117471 )     3.90540898
  WF centre and spread   61  ( -1.675444,  3.201148,  0.053864 )     1.22780855
  WF centre and spread   62  (  3.054188,  0.460970,  5.871400 )     1.58930989
  WF centre and spread   63  (  1.604501,  1.244907,  2.664916 )     5.47082337
  WF centre and spread   64  (  1.579915,  2.870844,  5.846459 )     2.52026413
  Sum of centres and spreads ( 40.871695,113.608957,196.271461 )   282.79938173
 
      7    -0.664E+01     3.2681569559      282.7993707745     116.56  <-- CONV
        O_D=      2.1996624 O_OD=    168.9877363 O_TOT=    282.7993708 <-- SPRD
 Delta: O_D= -0.1021834E+00 O_OD= -0.6536504E+01 O_TOT= -0.6638688E+01 <-- DLTA
 ------------------------------------------------------------------------------
 Cycle:      8
  WF centre and spread    1  (  1.785219, -0.002036,  2.660200 )    13.23013382
  WF centre and spread    2  (  0.788419,  0.882809,  1.890936 )     3.62290160
  WF centre and spread    3  (  2.553328,  0.289863,  3.229604 )     5.34953402
  WF centre and spread    4  (  0.458535,  1.505150,  0.552057 )     2.77395968
  WF centre and spread    5  ( -0.702883,  2.439012,  1.513060 )     2.99520599
  WF centre and spread    6  (  0.082010,  1.925847,  3.113597 )    12.47735881
  WF centre and spread    7  (  0.133974,  2.357917,  0.704546 )     3.37455431
  WF centre and spread    8  (  0.609164,  1.548510,  4.006125 )     9.27363696
  WF centre and spread    9  ( -1.131670,  2.969922,  5.230996 )     3.08440835
  WF centre and spread   10  (  2.992910,  1.236309,  2.063453 )     3.45677809
  WF centre and spread   11  ( -0.444270,  1.562922,  4.954859 )     5.78778507
  WF centre and spread   12  ( -1.660009,  3.112991,  5.950394 )     1.37760202
  WF centre and spread   13  (  2.050950,  0.675515,  1.679019 )     5.21488400
  WF centre and spread   14  ( -0.399088,  1.987999,  5.964251 )     4.69493339
  WF centre and spread   15  (  1.683402,  1.698293,  4.536266 )     2.28338307
  WF centre and spread   16  (  1.218941,  2.929806,  5.264471 )     3.57470700
  WF centre and spread   17  ( -0.439008,  1.588954,  3.870907 )     7.19365660
  WF centre and spread   18  (  2.233839,  1.170415,  4.121668 )     1.69733119
  WF centre and spread   19  (  1.098678,  2.429692,  1.111333 )     2.24304984
  WF centre and spread   20  (  1.870465,  2.744815,  1.643085 )     5.18956477
  WF centre and spread   21  ( -1.492456,  2.356905,  5.868960 )     3.53422067
  WF centre and spread   22  ( -0.153895,  1.102694,  1.101857 )     4.14671698
  WF centre and spread   23  (  1.803596,  1.787599,  0.323884 )     3.42587571
  WF centre and spread   24  (  2.137968,  1.997068,  4.960164 )     3.82853625
  WF centre and spread   25  (  0.870418,  0.044541,  3.220822 )     7.04616873
  WF centre and spread   26  (  0.033478,  2.658416,  3.955865 )     6.89626198
  WF centre and spread   27  (  0.942116,  3.200207,  1.894375 )     4.48083136
  WF centre and spread   28  (  1.610617,  1.147501,  3.969960 )     2.38881962
  WF centre and spread   29  ( -1.533773,  3.083196,  0.580071 )     3.75450947
  WF centre and spread   30  (  2.387384,  1.010537,  4.820793 )     1.17278313
  WF centre and spread   31  ( -0.226890,  0.474468,  0.666921 )     2.89577506
  WF centre and spread   32  (  1.195809,  1.963261,  4.706565 )     6.65841964
  WF centre and spread   33  ( -0.196252,  3.164696,  5.626409 )     3.40776508
  WF centre and spread   34  (  0.971721,  0.926331,  4.666337 )     2.86381268
  WF centre and spread   35  (  1.852427,  0.583639,  4.181002 )     2.71038731
  WF centre and spread   36  (  0.289380,  2.135097,  5.222170 )     4.82820662
  WF centre and spread   37  ( -0.409621,  1.751504,  1.009358 )     3.59888346
  WF centre and spread   38  (  0.045955,  2.733816,  1.428507 )     1.27189181
  WF centre and spread   39  (  0.547367,  0.597054,  0.516451 )     3.36082220
  WF centre and spread   40  (  1.848460,  2.241974,  1.813593 )     5.92870673
  WF centre and spread   41  (  1.655070,  2.677321,  3.168801 )     7.63130647
  WF centre and spread   42  (  1.438551,  1.956344,  4.295591 )     6.19663580
  WF centre and spread   43  ( -1.342083,  2.583628,  0.426121 )     3.55493226
  WF centre and spread   44  (  1.511928,  0.647112,  4.843620 )     1.22209816
  WF centre and spread   45  ( -0.454809,  2.025437,  2.324624 )     4.51724332
  WF centre and spread   46  (  0.036553,  0.841672,  5.605458 )     4.08172260
  WF centre and spread   47  ( -0.098579,  0.397053,  4.855735 )     2.72546808
  WF centre and spread   48  (  1.131127,  3.141224,  4.071629 )     4.96494037
  WF centre and spread   49  (  0.292566,  0.219384,  5.753330 )     1.26552369
  WF centre and spread   50  ( -0.367693,  1.639787,  1.489877 )     3.00356009
  WF centre and spread   51  (  0.337926,  1.089378,  2.706774 )     7.89294905
  WF centre and spread   52  (  2.516578,  0.302540,  0.678969 )     2.74746824
  WF centre and spread   53  (  0.347853,  2.337535,  2.309475 )     4.04534415
  WF centre and spread   54  (  1.323562,  2.320082,  0.097320 )     3.63902620
  WF centre and spread   55  ( -1.150346,  2.875911,  4.132294 )     5.66200215
  WF centre and spread   56  (  1.361360,  1.319266,  1.217865 )     4.93029309
  WF centre and spread   57  ( -0.887366,  3.292634,  0.884108 )     7.05496577
  WF centre and spread   58  (  1.543231,  1.075989,  5.439372 )     2.25231204
  WF centre and spread   59  ( -1.117708,  2.136727,  2.849446 )    10.14913097
  WF centre and spread   60  (  0.973321,  2.825975,  0.114812 )     3.80811539
  WF centre and spread   61  ( -1.679997,  3.199233,  0.051701 )     1.18362702
  WF centre and spread   62  (  3.054122,  0.458875,  5.874462 )     1.61163468
  WF centre and spread   63  (  1.593270,  1.248922,  2.670599 )     5.28978412
  WF centre and spread   64  (  1.586178,  2.875304,  5.848614 )     2.46191100
  Sum of centres and spreads ( 40.911326,113.502541,196.305488 )   278.98675777
 
      8    -0.381E+01     1.9047973197      278.9867468290     130.22  <-- CONV
        O_D=      2.3336757 O_OD=    165.0410990 O_TOT=    278.9867468 <-- SPRD
 Delta: O_D=  0.1340133E+00 O_OD= -0.3946637E+01 O_TOT= -0.3812624E+01 <-- DLTA
 ------------------------------------------------------------------------------
 Cycle:      9
  WF centre and spread    1  (  1.792800, -0.070563,  2.649669 )    13.46878098
  WF centre and spread    2  (  0.782964,  0.877625,  1.892035 )     3.65478679
  WF centre and spread    3  (  2.555156,  0.291458,  3.235070 )     5.18088450
  WF centre and spread    4  (  0.467374,  1.525842,  0.572329 )     2.90352219
  WF centre and spread    5  ( -0.686783,  2.434801,  1.520326 )     2.94067511
  WF centre and spread    6  (  0.096861,  1.942809,  3.116634 )    12.03857585
  WF centre and spread    7  (  0.131977,  2.340365,  0.722241 )     3.36206147
  WF centre and spread    8  (  0.613300,  1.531884,  3.988671 )     9.15730846
  WF centre and spread    9  ( -1.149988,  2.971768,  5.239440 )     3.06506154
  WF centre and spread   10  (  2.992878,  1.236763,  2.055775 )     3.52000276
  WF centre and spread   11  ( -0.438823,  1.558412,  4.948988 )     5.73855285
  WF centre and spread   12  ( -1.670337,  3.114706,  5.950818 )     1.27240346
  WF centre and spread   13  (  2.050269,  0.666991,  1.672952 )     5.26010670
  WF centre and spread   14  ( -0.380029,  1.975412,  5.970096 )     4.81894966
  WF centre and spread   15  (  1.683086,  1.700755,  4.536773 )     2.19457504
  WF centre and spread   16  (  1.223951,  2.919572,  5.262313 )     3.53763669
  WF centre and spread   17  ( -0.429010,  1.567229,  3.862847 )     7.04303828
  WF centre and spread   18  (  2.236616,  1.170267,  4.125829 )     1.63072318
  WF centre and spread   19  (  1.087521,  2.434666,  1.113289 )     2.31270130
  WF centre and spread   20  (  1.856333,  2.743789,  1.624289 )     5.06465124
  WF centre and spread   21  ( -1.498512,  2.358049,  5.865872 )     3.47827095
  WF centre and spread   22  ( -0.137675,  1.124356,  1.128377 )     4.15907911
  WF centre and spread   23  (  1.803641,  1.791534,  0.318506 )     3.56663045
  WF centre and spread   24  (  2.137060,  1.980426,  4.951860 )     3.79317712
  WF centre and spread   25  (  0.870932,  0.035431,  3.236903 )     6.84887596
  WF centre and spread   26  (  0.033243,  2.665514,  3.970121 )     6.59172976
  WF centre and spread   27  (  0.939653,  3.212242,  1.897219 )     4.51217046
  WF centre and spread   28  (  1.617796,  1.141459,  3.982040 )     2.30034412
  WF centre and spread   29  ( -1.553172,  3.083403,  0.543899 )     3.37353026
  WF centre and spread   30  (  2.385463,  1.005050,  4.818397 )     1.16107831
  WF centre and spread   31  ( -0.228251,  0.482393,  0.676285 )     2.92829390
  WF centre and spread   32  (  1.240599,  1.951292,  4.716676 )     6.36264693
  WF centre and spread   33  ( -0.208064,  3.169435,  5.637835 )     3.50153893
  WF centre and spread   34  (  1.014719,  0.927651,  4.676387 )     2.79595082
  WF centre and spread   35  (  1.854022,  0.584379,  4.179697 )     2.55917559
  WF centre and spread   36  (  0.304351,  2.122607,  5.218053 )     4.70925150
  WF centre and spread   37  ( -0.388383,  1.741951,  1.040256 )     3.40836405
  WF centre and spread   38  (  0.051955,  2.734168,  1.424441 )     1.30198863
  WF centre and spread   39  (  0.547609,  0.602365,  0.513642 )     3.36043916
  WF centre and spread   40  (  1.832152,  2.250819,  1.797869 )     5.83537456
  WF centre and spread   41  (  1.649253,  2.681248,  3.159335 )     7.46861946
  WF centre and spread   42  (  1.422382,  1.949945,  4.326378 )     6.24456339
  WF centre and spread   43  ( -1.353366,  2.602623,  0.426193 )     3.39888420
  WF centre and spread   44  (  1.519906,  0.637759,  4.848195 )     1.21049064
  WF centre and spread   45  ( -0.446913,  2.025911,  2.308585 )     4.38307455
  WF centre and spread   46  (  0.041721,  0.828888,  5.607397 )     4.07405421
  WF centre and spread   47  ( -0.101397,  0.388286,  4.864547 )     2.75281937
  WF centre and spread   48  (  1.131519,  3.135118,  4.076502 )     4.92758179
  WF centre and spread   49  (  0.281716,  0.209415,  5.767779 )     1.21615862
  WF centre and spread   50  ( -0.350179,  1.633700,  1.507072 )     2.79342183
  WF centre and spread   51  (  0.333345,  1.105997,  2.683255 )     7.53413587
  WF centre and spread   52  (  2.523292,  0.299895,  0.676709 )     2.85598659
  WF centre and spread   53  (  0.336608,  2.314028,  2.281332 )     3.96007050
  WF centre and spread   54  (  1.329029,  2.319336,  0.090566 )     3.49217331
  WF centre and spread   55  ( -1.153363,  2.869560,  4.134439 )     5.52802721
  WF centre and spread   56  (  1.352300,  1.304040,  1.225800 )     4.98597573
  WF centre and spread   57  ( -0.872145,  3.312646,  0.877242 )     7.03205536
  WF centre and spread   58  (  1.551518,  1.076725,  5.424677 )     2.30938642
  WF centre and spread   59  ( -1.142164,  2.114726,  2.835339 )     9.83596943
  WF centre and spread   60  (  0.983537,  2.833153,  0.110055 )     3.65786245
  WF centre and spread   61  ( -1.688372,  3.195515,  0.047336 )     1.11388312
  WF centre and spread   62  (  3.053918,  0.455055,  5.879786 )     1.66687159
  WF centre and spread   63  (  1.573465,  1.256965,  2.681109 )     5.03147770
  WF centre and spread   64  (  1.597567,  2.883420,  5.852405 )     2.37989182
  Sum of centres and spreads ( 41.008432,113.333029,196.346755 )   274.56634376
 
      9    -0.442E+01     2.0045039227      274.5663328581     143.84  <-- CONV
        O_D=      2.3467566 O_OD=    160.6076042 O_TOT=    274.5663329 <-- SPRD
 Delta: O_D=  0.1308088E-01 O_OD= -0.4433495E+01 O_TOT= -0.4420414E+01 <-- DLTA
 ------------------------------------------------------------------------------
 Cycle:     10
  WF centre and spread    1  (  1.808836, -0.166707,  2.627435 )    13.83512433
  WF centre and spread    2  (  0.773779,  0.870097,  1.894504 )     3.72570370
  WF centre and spread    3  (  2.559125,  0.293783,  3.243042 )     4.94882893
  WF centre and spread    4  (  0.481938,  1.557601,  0.603061 )     3.14379343
  WF centre and spread    5  ( -0.663027,  2.428349,  1.528605 )     2.83830674
  WF centre and spread    6  (  0.130140,  1.966657,  3.131344 )    11.36972900
  WF centre and spread    7  (  0.126363,  2.315871,  0.749141 )     3.32767858
  WF centre and spread    8  (  0.618609,  1.500754,  3.962982 )     8.95076029
  WF centre and spread    9  ( -1.177330,  2.975727,  5.253303 )     3.04569481
  WF centre and spread   10  (  2.992333,  1.236853,  2.043073 )     3.65207350
  WF centre and spread   11  ( -0.430377,  1.550836,  4.940298 )     5.66655422
  WF centre and spread   12  ( -1.687122,  3.117338,  5.951954 )     1.11747163
  WF centre and spread   13  (  2.049955,  0.653801,  1.662440 )     5.35431110
  WF centre and spread   14  ( -0.351202,  1.955188,  5.978897 )     5.03600627
  WF centre and spread   15  (  1.681610,  1.704805,  4.537991 )     2.05515336
  WF centre and spread   16  (  1.230783,  2.906060,  5.258104 )     3.48973009
  WF centre and spread   17  ( -0.415964,  1.533050,  3.853373 )     6.81692463
  WF centre and spread   18  (  2.240182,  1.170068,  4.131608 )     1.54358930
  WF centre and spread   19  (  1.070207,  2.443108,  1.116881 )     2.44420910
  WF centre and spread   20  (  1.836613,  2.742448,  1.595386 )     4.90602288
  WF centre and spread   21  ( -1.508910,  2.361722,  5.860820 )     3.38120602
  WF centre and spread   22  ( -0.109315,  1.161923,  1.165285 )     4.17762153
  WF centre and spread   23  (  1.802240,  1.794994,  0.311801 )     3.82768531
  WF centre and spread   24  (  2.136905,  1.954409,  4.936943 )     3.74959152
  WF centre and spread   25  (  0.875320,  0.025635,  3.259879 )     6.58322382
  WF centre and spread   26  (  0.030213,  2.678349,  3.992298 )     6.18581961
  WF centre and spread   27  (  0.936032,  3.232620,  1.902978 )     4.59688522
  WF centre and spread   28  (  1.626555,  1.133233,  3.999840 )     2.17328629
  WF centre and spread   29  ( -1.584836,  3.079547,  0.487702 )     2.85672046
  WF centre and spread   30  (  2.382208,  0.995962,  4.814442 )     1.15822983
  WF centre and spread   31  ( -0.227688,  0.496307,  0.690468 )     2.98078028
  WF centre and spread   32  (  1.304446,  1.934013,  4.730587 )     5.93972331
  WF centre and spread   33  ( -0.229747,  3.175428,  5.659018 )     3.67991812
  WF centre and spread   34  (  1.079691,  0.929243,  4.688545 )     2.70644207
  WF centre and spread   35  (  1.857248,  0.583577,  4.175374 )     2.34822081
  WF centre and spread   36  (  0.323825,  2.104750,  5.213685 )     4.56603622
  WF centre and spread   37  ( -0.357494,  1.731500,  1.082368 )     3.14129158
  WF centre and spread   38  (  0.060821,  2.734917,  1.417351 )     1.35817637
  WF centre and spread   39  (  0.546612,  0.612356,  0.507733 )     3.36514078
  WF centre and spread   40  (  1.807594,  2.261603,  1.781524 )     5.72044072
  WF centre and spread   41  (  1.646912,  2.686732,  3.142440 )     7.29075039
  WF centre and spread   42  (  1.399947,  1.944318,  4.366041 )     6.41115075
  WF centre and spread   43  ( -1.368824,  2.626978,  0.425826 )     3.17389872
  WF centre and spread   44  (  1.532724,  0.623085,  4.854793 )     1.19665659
  WF centre and spread   45  ( -0.434295,  2.028370,  2.285765 )     4.18341049
  WF centre and spread   46  (  0.048254,  0.807978,  5.608949 )     4.06110656
  WF centre and spread   47  ( -0.108752,  0.374454,  4.878825 )     2.81087636
  WF centre and spread   48  (  1.134050,  3.127359,  4.083792 )     4.90021704
  WF centre and spread   49  (  0.262820,  0.194273,  5.789708 )     1.16422760
  WF centre and spread   50  ( -0.325988,  1.627329,  1.528902 )     2.48965224
  WF centre and spread   51  (  0.328355,  1.127965,  2.656781 )     7.01806132
  WF centre and spread   52  (  2.534932,  0.295945,  0.672593 )     3.04138185
  WF centre and spread   53  (  0.318733,  2.280546,  2.239869 )     3.83319557
  WF centre and spread   54  (  1.338573,  2.318487,  0.081161 )     3.26098905
  WF centre and spread   55  ( -1.156476,  2.858756,  4.133827 )     5.36098310
  WF centre and spread   56  (  1.339406,  1.282168,  1.239908 )     5.09875828
  WF centre and spread   57  ( -0.858933,  3.348567,  0.864891 )     6.98135159
  WF centre and spread   58  (  1.565645,  1.079184,  5.401504 )     2.41962495
  WF centre and spread   59  ( -1.175210,  2.086913,  2.822567 )     9.35110770
  WF centre and spread   60  (  0.997689,  2.846228,  0.101862 )     3.42267004
  WF centre and spread   61  ( -1.701496,  3.189744,  0.040028 )     1.01606851
  WF centre and spread   62  (  3.053453,  0.449191,  5.887578 )     1.77358620
  WF centre and spread   63  (  1.546883,  1.267447,  2.697018 )     4.69329878
  WF centre and spread   64  (  1.614754,  2.896813,  5.858715 )     2.25038620
  Sum of centres and spreads ( 41.160325,113.106603,196.405408 )   268.96751563
 
     10    -0.560E+01     2.4021430542      268.9675047870     157.54  <-- CONV
        O_D=      2.1435595 O_OD=    155.2119732 O_TOT=    268.9675048 <-- SPRD
 Delta: O_D= -0.2031971E+00 O_OD= -0.5395631E+01 O_TOT= -0.5598828E+01 <-- DLTA
 ------------------------------------------------------------------------------
 Cycle:     11
  WF centre and spread    1  (  1.803546, -0.206510,  2.627409 )    13.89407343
  WF centre and spread    2  (  0.767955,  0.865873,  1.896009 )     3.76612221
  WF centre and spread    3  (  2.562288,  0.295454,  3.247814 )     4.82692831
  WF centre and spread    4  (  0.490359,  1.575713,  0.620863 )     3.28282348
  WF centre and spread    5  ( -0.649169,  2.424337,  1.531696 )     2.76411115
  WF centre and spread    6  (  0.147174,  1.977384,  3.144514 )    10.90563643
  WF centre and spread    7  (  0.121864,  2.303646,  0.764481 )     3.29158994
  WF centre and spread    8  (  0.620480,  1.481038,  3.950991 )     8.80676502
  WF centre and spread    9  ( -1.192320,  2.978853,  5.261838 )     3.02815956
  WF centre and spread   10  (  2.991894,  1.236701,  2.034682 )     3.72729129
  WF centre and spread   11  ( -0.425467,  1.546936,  4.935059 )     5.61974403
  WF centre and spread   12  ( -1.697204,  3.118980,  5.953153 )     1.03519926
  WF centre and spread   13  (  2.050537,  0.646050,  1.656319 )     5.39925541
  WF centre and spread   14  ( -0.335048,  1.942780,  5.983579 )     5.16064439
  WF centre and spread   15  (  1.680511,  1.707034,  4.539345 )     1.97630399
  WF centre and spread   16  (  1.234400,  2.899215,  5.256269 )     3.45745993
  WF centre and spread   17  ( -0.409148,  1.514050,  3.848828 )     6.67695894
  WF centre and spread   18  (  2.241669,  1.170110,  4.134821 )     1.49843975
  WF centre and spread   19  (  1.059739,  2.448200,  1.119244 )     2.52466138
  WF centre and spread   20  (  1.826185,  2.741586,  1.579358 )     4.80565872
  WF centre and spread   21  ( -1.516025,  2.364928,  5.858768 )     3.31850712
  WF centre and spread   22  ( -0.091059,  1.186188,  1.183595 )     4.17699472
  WF centre and spread   23  (  1.800690,  1.795195,  0.308338 )     3.99624708
  WF centre and spread   24  (  2.137598,  1.939076,  4.927968 )     3.72036732
  WF centre and spread   25  (  0.879265,  0.021493,  3.270942 )     6.42967535
  WF centre and spread   26  (  0.027233,  2.686672,  4.006078 )     5.97365722
  WF centre and spread   27  (  0.933966,  3.245607,  1.905916 )     4.64890662
  WF centre and spread   28  (  1.630489,  1.129132,  4.010203 )     2.10381549
  WF centre and spread   29  ( -1.603671,  3.074718,  0.455626 )     2.60877343
  WF centre and spread   30  (  2.380085,  0.990235,  4.812247 )     1.16159564
  WF centre and spread   31  ( -0.226272,  0.505234,  0.698293 )     3.00400269
  WF centre and spread   32  (  1.338519,  1.925265,  4.738130 )     5.72670991
  WF centre and spread   33  ( -0.244944,  3.178007,  5.673672 )     3.78524052
  WF centre and spread   34  (  1.116488,  0.929550,  4.693586 )     2.66466311
  WF centre and spread   35  (  1.859428,  0.582748,  4.172845 )     2.23613934
  WF centre and spread   36  (  0.333344,  2.095386,  5.212474 )     4.48667026
  WF centre and spread   37  ( -0.340731,  1.727856,  1.103230 )     3.00998560
  WF centre and spread   38  (  0.065669,  2.735347,  1.412792 )     1.39219063
  WF centre and spread   39  (  0.544947,  0.618640,  0.503393 )     3.35908018
  WF centre and spread   40  (  1.793132,  2.266206,  1.774295 )     5.64688368
  WF centre and spread   41  (  1.648200,  2.689705,  3.131885 )     7.21046733
  WF centre and spread   42  (  1.388236,  1.943601,  4.387655 )     6.55940877
  WF centre and spread   43  ( -1.376919,  2.638337,  0.425076 )     3.05406855
  WF centre and spread   44  (  1.540400,  0.614434,  4.858490 )     1.18945812
  WF centre and spread   45  ( -0.426759,  2.030475,  2.273431 )     4.05340435
  WF centre and spread   46  (  0.050985,  0.795649,  5.609636 )     4.04127814
  WF centre and spread   47  ( -0.114997,  0.366703,  4.888260 )     2.83920217
  WF centre and spread   48  (  1.136956,  3.123758,  4.088710 )     4.89839808
  WF centre and spread   49  (  0.250594,  0.185416,  5.802315 )     1.14602046
  WF centre and spread   50  ( -0.313288,  1.625468,  1.538946 )     2.33667161
  WF centre and spread   51  (  0.325093,  1.138629,  2.645759 )     6.76960618
  WF centre and spread   52  (  2.542743,  0.293937,  0.669448 )     3.14415495
  WF centre and spread   53  (  0.308607,  2.263237,  2.216263 )     3.74944257
  WF centre and spread   54  (  1.344369,  2.318169,  0.076652 )     3.12252616
  WF centre and spread   55  ( -1.157858,  2.851880,  4.132257 )     5.26169883
  WF centre and spread   56  (  1.332631,  1.271594,  1.249045 )     5.16681074
[...]
  WF centre and spread   46  (  0.047239,  0.790115,  5.562750 )     3.28988257
  WF centre and spread   47  ( -0.271565,  0.321532,  5.044128 )     2.60055916
  WF centre and spread   48  (  1.229651,  3.136464,  4.158971 )     5.12241966
  WF centre and spread   49  (  0.116697,  0.085767,  5.914673 )     0.89383790
  WF centre and spread   50  ( -0.195329,  1.671585,  1.657478 )     1.72189999
  WF centre and spread   51  (  0.250284,  1.240211,  2.706493 )     5.22585293
  WF centre and spread   52  (  2.673423,  0.253482,  0.626043 )     2.97152776
  WF centre and spread   53  (  0.247516,  2.179266,  2.050264 )     2.19547770
  WF centre and spread   54  (  1.353658,  2.240501,  0.068796 )     2.36685431
  WF centre and spread   55  ( -1.163736,  2.774200,  4.105833 )     4.45203336
  WF centre and spread   56  (  1.361899,  1.335235,  1.312148 )     4.87490202
  WF centre and spread   57  ( -1.056892,  3.366565,  0.751597 )     4.66563531
  WF centre and spread   58  (  1.623839,  1.089445,  5.207572 )     2.69833138
  WF centre and spread   59  ( -1.284293,  2.105445,  2.795645 )     6.02738998
  WF centre and spread   60  (  1.059993,  2.933531,  0.065022 )     2.49182217
  WF centre and spread   61  ( -1.781759,  3.166020,  0.008367 )     0.57640736
  WF centre and spread   62  (  2.943425,  0.485789,  5.888024 )     2.09939133
  WF centre and spread   63  (  1.574404,  1.293855,  2.741086 )     3.69449490
  WF centre and spread   64  (  1.748264,  3.067158,  5.938206 )     1.31573807
  Sum of centres and spreads ( 42.186037,112.515978,196.467352 )   235.21673690
 
     98    -0.530E-01     0.6145534124      235.2167264432    1361.80  <-- CONV
        O_D=      2.0266740 O_OD=    121.5780804 O_TOT=    235.2167264 <-- SPRD
 Delta: O_D=  0.5773744E-02 O_OD= -0.5877189E-01 O_TOT= -0.5299815E-01 <-- DLTA
 ------------------------------------------------------------------------------
 Cycle:     99
  WF centre and spread    1  (  1.988391, -0.325374,  2.613726 )    18.80181062
  WF centre and spread    2  (  0.744921,  0.580757,  1.915751 )     3.99318581
  WF centre and spread    3  (  2.591698,  0.269743,  3.258930 )     4.00934969
  WF centre and spread    4  (  0.649905,  1.848620,  0.799266 )     4.38489249
  WF centre and spread    5  ( -0.516371,  2.419126,  1.527518 )     1.94406812
  WF centre and spread    6  (  0.473994,  2.139125,  3.293586 )     7.35447007
  WF centre and spread    7  (  0.062131,  2.282914,  0.918392 )     2.44060879
  WF centre and spread    8  (  0.510261,  1.330566,  3.949410 )     7.39034736
  WF centre and spread    9  ( -1.247439,  3.065829,  5.270374 )     2.49402336
  WF centre and spread   10  (  2.848166,  1.208282,  1.945184 )     3.90930102
  WF centre and spread   11  ( -0.474261,  1.640559,  4.911388 )     5.75345597
  WF centre and spread   12  ( -1.772832,  3.140040,  5.976719 )     0.62729557
  WF centre and spread   13  (  2.037070,  0.562410,  1.552132 )     5.30379590
  WF centre and spread   14  ( -0.212880,  1.717139,  5.995792 )     6.05642091
  WF centre and spread   15  (  1.696782,  1.695527,  4.534086 )     1.65702928
  WF centre and spread   16  (  1.225547,  2.787792,  5.258150 )     2.43994900
  WF centre and spread   17  ( -0.302598,  1.338263,  3.796411 )     5.44482199
  WF centre and spread   18  (  2.269746,  1.176769,  4.136495 )     1.42487418
  WF centre and spread   19  (  0.956659,  2.443155,  1.166530 )     2.93136797
  WF centre and spread   20  (  1.781174,  2.797688,  1.401313 )     3.15825116
  WF centre and spread   21  ( -1.533604,  2.369077,  5.824437 )     3.20837735
  WF centre and spread   22  (  0.078933,  1.645231,  1.303047 )     3.32512377
  WF centre and spread   23  (  1.843126,  1.471682,  0.258508 )     5.08402095
  WF centre and spread   24  (  2.180913,  1.728363,  4.839947 )     3.36216910
  WF centre and spread   25  (  0.947221,  0.067914,  3.242716 )     4.07928132
  WF centre and spread   26  ( -0.040056,  2.736819,  4.254564 )     4.90103632
  WF centre and spread   27  (  0.934800,  3.391630,  1.898488 )     5.04930764
  WF centre and spread   28  (  1.622958,  1.122798,  4.043883 )     1.85714006
  WF centre and spread   29  ( -1.771114,  3.120489,  0.105269 )     0.93570460
  WF centre and spread   30  (  2.373508,  0.947676,  4.793929 )     1.26920245
  WF centre and spread   31  ( -0.177405,  0.593571,  0.708783 )     2.44606894
  WF centre and spread   32  (  1.692440,  1.926344,  4.749387 )     5.86298806
  WF centre and spread   33  ( -0.523188,  3.073415,  5.853194 )     2.91562513
  WF centre and spread   34  (  1.330653,  0.895851,  4.626305 )     2.12531393
  WF centre and spread   35  (  1.883284,  0.577457,  4.146646 )     1.86182816
  WF centre and spread   36  (  0.396508,  1.968014,  5.220768 )     3.73241415
  WF centre and spread   37  ( -0.306912,  1.784515,  1.171262 )     1.99061434
  WF centre and spread   38  (  0.119941,  2.728788,  1.388161 )     1.49098989
  WF centre and spread   39  (  0.582925,  0.653170,  0.360300 )     2.47609617
  WF centre and spread   40  (  1.718710,  2.362743,  1.773685 )     4.65459721
  WF centre and spread   41  (  1.684253,  2.649978,  3.095403 )     6.17402015
  WF centre and spread   42  (  1.372953,  1.861911,  4.608014 )     9.37312115
  WF centre and spread   43  ( -1.345672,  2.589425,  0.467528 )     2.45457642
  WF centre and spread   44  (  1.625851,  0.543097,  4.861937 )     1.12761240
  WF centre and spread   45  ( -0.293443,  2.047796,  2.046676 )     2.65290367
  WF centre and spread   46  (  0.047176,  0.790293,  5.562630 )     3.28724268
  WF centre and spread   47  ( -0.271948,  0.321574,  5.044524 )     2.60003779
  WF centre and spread   48  (  1.229980,  3.136497,  4.159163 )     5.12411671
  WF centre and spread   49  (  0.116336,  0.085502,  5.914963 )     0.89291957
  WF centre and spread   50  ( -0.195110,  1.671759,  1.657806 )     1.72131026
  WF centre and spread   51  (  0.250093,  1.240354,  2.706868 )     5.22173593
  WF centre and spread   52  (  2.673828,  0.253290,  0.625993 )     2.97070933
  WF centre and spread   53  (  0.247412,  2.179156,  2.050008 )     2.19212673
  WF centre and spread   54  (  1.353606,  2.240234,  0.068886 )     2.36576148
  WF centre and spread   55  ( -1.163659,  2.774376,  4.105622 )     4.45181569
  WF centre and spread   56  (  1.362039,  1.335715,  1.312126 )     4.87255897
  WF centre and spread   57  ( -1.057142,  3.366203,  0.751267 )     4.65469475
  WF centre and spread   58  (  1.623986,  1.089454,  5.207048 )     2.69753432
  WF centre and spread   59  ( -1.283739,  2.105564,  2.796198 )     6.01732491
  WF centre and spread   60  (  1.060020,  2.933543,  0.064957 )     2.49152953
  WF centre and spread   61  ( -1.781909,  3.166000,  0.008331 )     0.57576213
  WF centre and spread   62  (  2.942940,  0.486014,  5.888012 )     2.09981236
  WF centre and spread   63  (  1.574447,  1.293903,  2.740992 )     3.69388068
  WF centre and spread   64  (  1.748556,  3.067591,  5.938453 )     1.31350085
  Sum of centres and spreads ( 42.184563,112.513704,196.467840 )   235.17382725
 
     99    -0.429E-01     0.7834945675      235.1738167907    1375.48  <-- CONV
        O_D=      2.0358327 O_OD=    121.5260120 O_TOT=    235.1738168 <-- SPRD
 Delta: O_D=  0.9158748E-02 O_OD= -0.5206840E-01 O_TOT= -0.4290965E-01 <-- DLTA
 ------------------------------------------------------------------------------
 Cycle:    100
  WF centre and spread    1  (  2.019755, -0.320954,  2.615124 )    19.08681697
  WF centre and spread    2  (  0.744947,  0.577562,  1.916298 )     3.99834744
  WF centre and spread    3  (  2.591480,  0.269622,  3.258660 )     4.00508036
  WF centre and spread    4  (  0.651661,  1.852166,  0.802112 )     4.40205035
  WF centre and spread    5  ( -0.515947,  2.419558,  1.527501 )     1.93953321
  WF centre and spread    6  (  0.476120,  2.140738,  3.291915 )     7.31257987
  WF centre and spread    7  (  0.061585,  2.282942,  0.919563 )     2.43507123
  WF centre and spread    8  (  0.509075,  1.329293,  3.949951 )     7.38373039
  WF centre and spread    9  ( -1.247620,  3.067080,  5.269400 )     2.48974804
  WF centre and spread   10  (  2.844897,  1.207764,  1.944857 )     3.91609605
  WF centre and spread   11  ( -0.475553,  1.642386,  4.911807 )     5.76155865
  WF centre and spread   12  ( -1.773388,  3.140231,  5.977034 )     0.62505012
  WF centre and spread   13  (  2.036427,  0.562554,  1.551020 )     5.30298545
  WF centre and spread   14  ( -0.212018,  1.713201,  5.995672 )     6.06605104
  WF centre and spread   15  (  1.696644,  1.695129,  4.533931 )     1.65400099
  WF centre and spread   16  (  1.225810,  2.786772,  5.258619 )     2.42998291
  WF centre and spread   17  ( -0.302914,  1.337225,  3.795547 )     5.43883056
  WF centre and spread   18  (  2.270007,  1.176870,  4.136427 )     1.42526420
  WF centre and spread   19  (  0.955904,  2.442729,  1.166955 )     2.93752131
  WF centre and spread   20  (  1.781636,  2.798356,  1.399441 )     3.15095385
  WF centre and spread   21  ( -1.533330,  2.368792,  5.823517 )     3.20719698
  WF centre and spread   22  (  0.078920,  1.648827,  1.304003 )     3.31303973
  WF centre and spread   23  (  1.844717,  1.467448,  0.257915 )     5.07392593
  WF centre and spread   24  (  2.181130,  1.726024,  4.839190 )     3.36140596
  WF centre and spread   25  (  0.947929,  0.068753,  3.241834 )     4.06853896
  WF centre and spread   26  ( -0.040413,  2.737210,  4.257378 )     4.90127935
  WF centre and spread   27  (  0.935291,  3.392991,  1.898941 )     5.05409037
  WF centre and spread   28  (  1.622613,  1.122973,  4.043831 )     1.85605433
  WF centre and spread   29  ( -1.772177,  3.121430,  0.102978 )     0.92644209
  WF centre and spread   30  (  2.373502,  0.947360,  4.793618 )     1.27006691
  WF centre and spread   31  ( -0.176638,  0.593932,  0.708665 )     2.43913461
  WF centre and spread   32  (  1.697112,  1.928210,  4.749629 )     5.88152811
  WF centre and spread   33  ( -0.525293,  3.072088,  5.853355 )     2.90394303
  WF centre and spread   34  (  1.330899,  0.895709,  4.625640 )     2.12042929
  WF centre and spread   35  (  1.883535,  0.577347,  4.146457 )     1.86129472
  WF centre and spread   36  (  0.396415,  1.966075,  5.221314 )     3.73345395
  WF centre and spread   37  ( -0.307650,  1.785075,  1.171286 )     1.98622236
  WF centre and spread   38  (  0.120473,  2.728615,  1.388364 )     1.49148173
  WF centre and spread   39  (  0.583849,  0.653851,  0.358596 )     2.46686079
  WF centre and spread   40  (  1.719068,  2.363704,  1.774947 )     4.65215877
  WF centre and spread   41  (  1.684391,  2.649715,  3.096365 )     6.17239027
  WF centre and spread   42  (  1.376335,  1.862130,  4.609528 )     9.39633669
  WF centre and spread   43  ( -1.344633,  2.588146,  0.468686 )     2.45468599
  WF centre and spread   44  (  1.626562,  0.542764,  4.861727 )     1.12842593
  WF centre and spread   45  ( -0.291966,  2.047607,  2.044132 )     2.64155705
  WF centre and spread   46  (  0.046962,  0.790909,  5.562220 )     3.27803834
  WF centre and spread   47  ( -0.273239,  0.321705,  5.045888 )     2.59809663
  WF centre and spread   48  (  1.231141,  3.136590,  4.159820 )     5.12996048
  WF centre and spread   49  (  0.115107,  0.084599,  5.915951 )     0.88961006
  WF centre and spread   50  ( -0.194370,  1.672333,  1.658933 )     1.71890154
  WF centre and spread   51  (  0.249444,  1.240831,  2.708152 )     5.20838355
  WF centre and spread   52  (  2.675245,  0.252657,  0.625822 )     2.96747948
  WF centre and spread   53  (  0.247038,  2.178776,  2.049168 )     2.18059722
  WF centre and spread   54  (  1.353440,  2.239332,  0.069204 )     2.36213485
  WF centre and spread   55  ( -1.163377,  2.774916,  4.104939 )     4.45137657
  WF centre and spread   56  (  1.362601,  1.337362,  1.312010 )     4.86518504
  WF centre and spread   57  ( -1.058030,  3.364951,  0.750115 )     4.61781313
  WF centre and spread   58  (  1.624493,  1.089516,  5.205274 )     2.69483649
  WF centre and spread   59  ( -1.281813,  2.105946,  2.798056 )     5.98447090
  WF centre and spread   60  (  1.060126,  2.933592,  0.064742 )     2.48984821
  WF centre and spread   61  ( -1.782417,  3.165930,  0.008211 )     0.57360332
  WF centre and spread   62  (  2.941313,  0.486772,  5.887968 )     2.10128446
  WF centre and spread   63  (  1.574604,  1.294050,  2.740697 )     3.69102702
  WF centre and spread   64  (  1.749553,  3.069058,  5.939300 )     1.30583060
  Sum of centres and spreads ( 42.226973,112.517826,196.470200 )   235.23167478
 
    100     0.578E-01     0.6611866749      235.2316643343    1389.16  <-- CONV
        O_D=      2.2626917 O_OD=    121.3570006 O_TOT=    235.2316643 <-- SPRD
 Delta: O_D=  0.2268590E+00 O_OD= -0.1690114E+00 O_TOT=  0.5784754E-01 <-- DLTA
 ------------------------------------------------------------------------------

 Writing checkpoint file wannier90.chk... done

 Final State
  WF centre and spread    1  (  2.019755, -0.320954,  2.615124 )    19.08681697
  WF centre and spread    2  (  0.744947,  0.577562,  1.916298 )     3.99834744
  WF centre and spread    3  (  2.591480,  0.269622,  3.258660 )     4.00508036
  WF centre and spread    4  (  0.651661,  1.852166,  0.802112 )     4.40205035
  WF centre and spread    5  ( -0.515947,  2.419558,  1.527501 )     1.93953321
  WF centre and spread    6  (  0.476120,  2.140738,  3.291915 )     7.31257987
  WF centre and spread    7  (  0.061585,  2.282942,  0.919563 )     2.43507123
  WF centre and spread    8  (  0.509075,  1.329293,  3.949951 )     7.38373039
  WF centre and spread    9  ( -1.247620,  3.067080,  5.269400 )     2.48974804
  WF centre and spread   10  (  2.844897,  1.207764,  1.944857 )     3.91609605
  WF centre and spread   11  ( -0.475553,  1.642386,  4.911807 )     5.76155865
  WF centre and spread   12  ( -1.773388,  3.140231,  5.977034 )     0.62505012
  WF centre and spread   13  (  2.036427,  0.562554,  1.551020 )     5.30298545
  WF centre and spread   14  ( -0.212018,  1.713201,  5.995672 )     6.06605104
  WF centre and spread   15  (  1.696644,  1.695129,  4.533931 )     1.65400099
  WF centre and spread   16  (  1.225810,  2.786772,  5.258619 )     2.42998291
  WF centre and spread   17  ( -0.302914,  1.337225,  3.795547 )     5.43883056
  WF centre and spread   18  (  2.270007,  1.176870,  4.136427 )     1.42526420
  WF centre and spread   19  (  0.955904,  2.442729,  1.166955 )     2.93752131
  WF centre and spread   20  (  1.781636,  2.798356,  1.399441 )     3.15095385
  WF centre and spread   21  ( -1.533330,  2.368792,  5.823517 )     3.20719698
  WF centre and spread   22  (  0.078920,  1.648827,  1.304003 )     3.31303973
  WF centre and spread   23  (  1.844717,  1.467448,  0.257915 )     5.07392593
  WF centre and spread   24  (  2.181130,  1.726024,  4.839190 )     3.36140596
  WF centre and spread   25  (  0.947929,  0.068753,  3.241834 )     4.06853896
  WF centre and spread   26  ( -0.040413,  2.737210,  4.257378 )     4.90127935
  WF centre and spread   27  (  0.935291,  3.392991,  1.898941 )     5.05409037
  WF centre and spread   28  (  1.622613,  1.122973,  4.043831 )     1.85605433
  WF centre and spread   29  ( -1.772177,  3.121430,  0.102978 )     0.92644209
  WF centre and spread   30  (  2.373502,  0.947360,  4.793618 )     1.27006691
  WF centre and spread   31  ( -0.176638,  0.593932,  0.708665 )     2.43913461
  WF centre and spread   32  (  1.697112,  1.928210,  4.749629 )     5.88152811
  WF centre and spread   33  ( -0.525293,  3.072088,  5.853355 )     2.90394303
  WF centre and spread   34  (  1.330899,  0.895709,  4.625640 )     2.12042929
  WF centre and spread   35  (  1.883535,  0.577347,  4.146457 )     1.86129472
  WF centre and spread   36  (  0.396415,  1.966075,  5.221314 )     3.73345395
  WF centre and spread   37  ( -0.307650,  1.785075,  1.171286 )     1.98622236
  WF centre and spread   38  (  0.120473,  2.728615,  1.388364 )     1.49148173
  WF centre and spread   39  (  0.583849,  0.653851,  0.358596 )     2.46686079
  WF centre and spread   40  (  1.719068,  2.363704,  1.774947 )     4.65215877
  WF centre and spread   41  (  1.684391,  2.649715,  3.096365 )     6.17239027
  WF centre and spread   42  (  1.376335,  1.862130,  4.609528 )     9.39633669
  WF centre and spread   43  ( -1.344633,  2.588146,  0.468686 )     2.45468599
  WF centre and spread   44  (  1.626562,  0.542764,  4.861727 )     1.12842593
  WF centre and spread   45  ( -0.291966,  2.047607,  2.044132 )     2.64155705
  WF centre and spread   46  (  0.046962,  0.790909,  5.562220 )     3.27803834
  WF centre and spread   47  ( -0.273239,  0.321705,  5.045888 )     2.59809663
  WF centre and spread   48  (  1.231141,  3.136590,  4.159820 )     5.12996048
  WF centre and spread   49  (  0.115107,  0.084599,  5.915951 )     0.88961006
  WF centre and spread   50  ( -0.194370,  1.672333,  1.658933 )     1.71890154
  WF centre and spread   51  (  0.249444,  1.240831,  2.708152 )     5.20838355
  WF centre and spread   52  (  2.675245,  0.252657,  0.625822 )     2.96747948
  WF centre and spread   53  (  0.247038,  2.178776,  2.049168 )     2.18059722
  WF centre and spread   54  (  1.353440,  2.239332,  0.069204 )     2.36213485
  WF centre and spread   55  ( -1.163377,  2.774916,  4.104939 )     4.45137657
  WF centre and spread   56  (  1.362601,  1.337362,  1.312010 )     4.86518504
  WF centre and spread   57  ( -1.058030,  3.364951,  0.750115 )     4.61781313
  WF centre and spread   58  (  1.624493,  1.089516,  5.205274 )     2.69483649
  WF centre and spread   59  ( -1.281813,  2.105946,  2.798056 )     5.98447090
  WF centre and spread   60  (  1.060126,  2.933592,  0.064742 )     2.48984821
  WF centre and spread   61  ( -1.782417,  3.165930,  0.008211 )     0.57360332
  WF centre and spread   62  (  2.941313,  0.486772,  5.887968 )     2.10128446
  WF centre and spread   63  (  1.574604,  1.294050,  2.740697 )     3.69102702
  WF centre and spread   64  (  1.749553,  3.069058,  5.939300 )     1.30583060
  Sum of centres and spreads ( 42.226973,112.517826,196.470200 )   235.23167478
 
         Spreads (Ang^2)       Omega I      =   111.611972081
        ================       Omega D      =     2.262691693
                               Omega OD     =   121.357000560
    Final Spread (Ang^2)       Omega Total  =   235.231664334
 ------------------------------------------------------------------------------
 Time for wannierise         1373.084 (sec)

 Writing checkpoint file wannier90.chk... done

 *---------------------------------------------------------------------------*
 |                               PLOTTING                                    |
 *---------------------------------------------------------------------------*
 
 
 Calculating interpolated band-structure
 
 Time to calculate interpolated band structure      25.576 (sec)
 
 Time for plotting             25.984 (sec)
 Total Execution Time        1420.988 (sec)

 *===========================================================================*
 |                             TIMING INFORMATION                            |
 *===========================================================================*
 |    Tag                                                Ncalls      Time (s)|
 |---------------------------------------------------------------------------|
 |kmesh: get                                        :         1         0.084|
 |overlap: read                                     :         1        20.392|
 |wann: main                                        :         1      1373.084|
 |plot: main                                        :         1        25.980|
 *---------------------------------------------------------------------------*
 
 All done: wannier90 exiting
