 vasp.5.4.1 24Jun15 (build Feb 06 2016 13:21:38) complex                        
  
 executed on             IFC_2016 date 2016.10.30  12:11:34
 running on   32 total cores
 distrk:  each k-point on    4 cores,    8 groups
 distr:  one band on NCORES_PER_BAND=   1 cores,    4 groups


--------------------------------------------------------------------------------------------------------


 INCAR:
 POTCAR:   PAW_PBE Sn_d 06Sep2000                 
 POTCAR:    PAW_PBE S 17Jan2003                   

 ----------------------------------------------------------------------------- 
|                                                                             |
|           W    W    AA    RRRRR   N    N  II  N    N   GGGG   !!!           |
|           W    W   A  A   R    R  NN   N  II  NN   N  G    G  !!!           |
|           W    W  A    A  R    R  N N  N  II  N N  N  G       !!!           |
|           W WW W  AAAAAA  RRRRR   N  N N  II  N  N N  G  GGG   !            |
|           WW  WW  A    A  R   R   N   NN  II  N   NN  G    G                |
|           W    W  A    A  R    R  N    N  II  N    N   GGGG   !!!           |
|                                                                             |
|      For optimal performance we recommend to set                            |
|        NCORE= 4 - approx SQRT( number of cores)                             |
|      NCORE specifies how many cores store one orbital (NPAR=cpu/NCORE).     |
|      This setting can  greatly improve the performance of VASP for DFT.     |
|      The default, NPAR=number of cores might be grossly inefficient         |
|      on modern multi-core architectures or massively parallel machines.     |
|      Do your own testing !!!!                                               |
|      Unfortunately you need to use the default for GW and RPA calculations. |
|      (for HF NCORE is supported but not extensively tested yet)             |
|                                                                             |
 ----------------------------------------------------------------------------- 


 ----------------------------------------------------------------------------- 
|                                                                             |
|           W    W    AA    RRRRR   N    N  II  N    N   GGGG   !!!           |
|           W    W   A  A   R    R  NN   N  II  NN   N  G    G  !!!           |
|           W    W  A    A  R    R  N N  N  II  N N  N  G       !!!           |
|           W WW W  AAAAAA  RRRRR   N  N N  II  N  N N  G  GGG   !            |
|           WW  WW  A    A  R   R   N   NN  II  N   NN  G    G                |
|           W    W  A    A  R    R  N    N  II  N    N   GGGG   !!!           |
|                                                                             |
|      You have enabled k-point parallelism (KPAR>1).                         |
|      This developmental code was originally  written by Paul Kent at ORNL,  |
|      and carefully double checked in Vienna.                                |
|      GW as well as linear response parallelism added by Martijn Marsman     |
|      and Georg Kresse.                                                      |
|      Carefully verify results versus KPAR=1.                                |
|      Report problems to Paul Kent and Vienna.                               |
|                                                                             |
 ----------------------------------------------------------------------------- 

 POTCAR:   PAW_PBE Sn_d 06Sep2000                 
   VRHFIN =Sn: s2p2                                                             
   LEXCH  = PE                                                                  
   EATOM  =  1893.0782 eV,  139.1373 Ry                                         
                                                                                
   TITEL  = PAW_PBE Sn_d 06Sep2000                                              
   LULTRA =        F    use ultrasoft PP ?                                      
   IUNSCR =        1    unscreen: 0-lin 1-nonlin 2-no                           
   RPACOR =    2.300    partial core radius                                     
   POMASS =  118.710; ZVAL   =   14.000    mass and valenz                      
   RCORE  =    2.500    outmost cutoff radius                                   
   RWIGS  =    2.960; RWIGS  =    1.566    wigner-seitz radius (au A)           
   ENMAX  =  241.090; ENMIN  =  180.817 eV                                      
   ICORE  =        3    local potential                                         
   LCOR   =        T    correct aug charges                                     
   LPAW   =        T    paw PP                                                  
   EAUG   =  439.825                                                            
   DEXC   =    -.001                                                            
   RMAX   =    2.969    core radius for proj-oper                               
   RAUG   =    1.300    factor for augmentation sphere                          
   RDEP   =    2.659    radius for radial grids                                 
   QCUT   =   -4.209; QGAM   =    8.419    optimization parameters              
                                                                                
   Description                                                                  
     l     E      TYP  RCUT    TYP  RCUT                                        
     2   .000     23  2.500                                                     
     2  -.400     23  2.500                                                     
     0   .000     23  2.500                                                     
     0  1.000     23  2.500                                                     
     1   .000     23  2.500                                                     
     1   .000     23  2.500                                                     
     3  -.100      7  2.500                                                     
  local pseudopotential read in
  partial core-charges read in
  atomic valenz-charges read in
  non local Contribution for L=           2  read in
    real space projection operators read in
  non local Contribution for L=           2  read in
    real space projection operators read in
  non local Contribution for L=           0  read in
    real space projection operators read in
  non local Contribution for L=           0  read in
    real space projection operators read in
  non local Contribution for L=           1  read in
    real space projection operators read in
  non local Contribution for L=           1  read in
    real space projection operators read in
    PAW grid and wavefunctions read in
 
   number of l-projection  operators is LMAX  =           6
   number of lm-projection operators is LMMAX =          18
 
 POTCAR:    PAW_PBE S 17Jan2003                   
   VRHFIN =S : s2p4                                                             
   LEXCH  = PE                                                                  
   EATOM  =   276.8230 eV,   20.3459 Ry                                         
                                                                                
   TITEL  = PAW_PBE S 17Jan2003                                                 
   LULTRA =        F    use ultrasoft PP ?                                      
   IUNSCR =        1    unscreen: 0-lin 1-nonlin 2-no                           
   RPACOR =    1.500    partial core radius                                     
   POMASS =   32.066; ZVAL   =    6.000    mass and valenz                      
   RCORE  =    1.900    outmost cutoff radius                                   
   RWIGS  =    2.200; RWIGS  =    1.164    wigner-seitz radius (au A)           
   ENMAX  =  280.000; ENMIN  =  194.016 eV                                      
   ICORE  =        2    local potential                                         
   LCOR   =        T    correct aug charges                                     
   LPAW   =        T    paw PP                                                  
   EAUG   =  335.092                                                            
   DEXC   =     .000                                                            
   RMAX   =    2.867    core radius for proj-oper                               
   RAUG   =    1.300    factor for augmentation sphere                          
   RDEP   =    1.954    radius for radial grids                                 
   QCUT   =   -4.360; QGAM   =    8.721    optimization parameters              
                                                                                
   Description                                                                  
     l     E      TYP  RCUT    TYP  RCUT                                        
     0   .000     23  1.900                                                     
     0   .000     23  1.900                                                     
     1   .000     23  1.900                                                     
     1   .000     23  1.900                                                     
     2   .000     23  1.900                                                     
  local pseudopotential read in
  partial core-charges read in
  atomic valenz-charges read in
  non local Contribution for L=           0  read in
    real space projection operators read in
  non local Contribution for L=           0  read in
    real space projection operators read in
  non local Contribution for L=           1  read in
    real space projection operators read in
  non local Contribution for L=           1  read in
    real space projection operators read in
    PAW grid and wavefunctions read in
 
   number of l-projection  operators is LMAX  =           4
   number of lm-projection operators is LMMAX =           8
 
 PAW_PBE Sn_d 06Sep2000                 :
 energy of atom  1       EATOM=-1893.0782
 kinetic energy error for atom=    0.0047 (will be added to EATOM!!)
  PAW_PBE S 17Jan2003                   :
 energy of atom  2       EATOM= -276.8230
 kinetic energy error for atom=    0.0046 (will be added to EATOM!!)
 
 
 POSCAR: SnS2                                    
  positions in direct lattice
  velocities in cartesian coordinates
 exchange correlation table for  LEXCH =        8
   RHO(1)=    0.500       N(1)  =     2000
   RHO(2)=  100.500       N(2)  =     4000
 


--------------------------------------------------------------------------------------------------------


 ion  position               nearest neighbor table
   1  0.000  0.000  0.000-   3 2.57   2 2.57   3 2.57   3 2.57   2 2.57   2 2.57
   2  0.333  0.667  0.245-   1 2.57   1 2.57   1 2.57
   3  0.667  0.333  0.755-   1 2.57   1 2.57   1 2.57
 
  LATTYP: Found a hexagonal cell.
 ALAT       =     3.6510002172
 C/A-ratio  =     1.6474937393
  
  Lattice vectors:
  
 A1 = (   3.6510000000,   0.0000000000,   0.0000000000)
 A2 = (  -1.8255000000,   3.1618590000,   0.0000000000)
 A3 = (   0.0000000000,   0.0000000000,   6.0150000000)


Analysis of symmetry for initial positions (statically):
=====================================================================
 Subroutine PRICEL returns:
 Original cell was already a primitive cell.
 

 Routine SETGRP: Setting up the symmetry group for a 
 hexagonal supercell.


 Subroutine GETGRP returns: Found 12 space group operations
 (whereof 12 operations were pure point group operations)
 out of a pool of 24 trial point group operations.


The static configuration has the point symmetry D_3d.


Analysis of symmetry for dynamics (positions and initial velocities):
=====================================================================
 Subroutine PRICEL returns:
 Original cell was already a primitive cell.
 

 Routine SETGRP: Setting up the symmetry group for a 
 hexagonal supercell.


 Subroutine GETGRP returns: Found 12 space group operations
 (whereof 12 operations were pure point group operations)
 out of a pool of 24 trial point group operations.


The dynamic configuration has the point symmetry D_3d.


 Subroutine INISYM returns: Found 12 space group operations
 (whereof 12 operations are pure point group operations),
 and found     1 'primitive' translations

 
 
 KPOINTS: Automatic 6x6x6                         

Automatic generation of k-mesh.
Space group operators:
 irot       det(A)        alpha          n_x          n_y          n_z        tau_x        tau_y        tau_z
    1     1.000000     0.000000     1.000000     0.000000     0.000000     0.000000     0.000000     0.000000
    2    -1.000000     0.000000     1.000000     0.000000     0.000000     0.000000     0.000000     0.000000
    3     1.000000   120.000000     0.000000     0.000000    -1.000000     0.000000     0.000000     0.000000
    4    -1.000000   120.000000     0.000000     0.000000    -1.000000     0.000000     0.000000     0.000000
    5     1.000000   120.000000     0.000000     0.000000     1.000000     0.000000     0.000000     0.000000
    6    -1.000000   120.000000     0.000000     0.000000     1.000000     0.000000     0.000000     0.000000
    7     1.000000   180.000000     1.000000     0.000000     0.000000     0.000000     0.000000     0.000000
    8    -1.000000   180.000000     1.000000     0.000000     0.000000     0.000000     0.000000     0.000000
    9     1.000000   180.000000     0.500000    -0.866025     0.000000     0.000000     0.000000     0.000000
   10    -1.000000   180.000000     0.500000    -0.866025     0.000000     0.000000     0.000000     0.000000
   11     1.000000   180.000000    -0.500000    -0.866025     0.000000     0.000000     0.000000     0.000000
   12    -1.000000   180.000000    -0.500000    -0.866025     0.000000     0.000000     0.000000     0.000000
 
 Subroutine IBZKPT returns following result:
 ===========================================
 
 Found     34 irreducible k-points:
 
 Following reciprocal coordinates:
            Coordinates               Weight
  0.000000  0.000000  0.000000      1.000000
  0.166667 -0.000000  0.000000      6.000000
  0.333333  0.000000  0.000000      6.000000
  0.500000 -0.000000  0.000000      3.000000
  0.166667  0.166667  0.000000      6.000000
  0.333333  0.166667  0.000000     12.000000
  0.333333  0.333333  0.000000      2.000000
  0.000000  0.000000  0.166667      2.000000
  0.166667 -0.000000  0.166667      6.000000
  0.333333  0.000000  0.166667      6.000000
  0.500000 -0.000000  0.166667      6.000000
 -0.333333 -0.000000  0.166667      6.000000
 -0.166667  0.000000  0.166667      6.000000
  0.166667  0.166667  0.166667     12.000000
  0.333333  0.166667  0.166667     12.000000
  0.500000  0.166667  0.166667     12.000000
  0.333333  0.333333  0.166667      4.000000
  0.000000  0.000000  0.333333      2.000000
  0.166667 -0.000000  0.333333      6.000000
  0.333333  0.000000  0.333333      6.000000
  0.500000 -0.000000  0.333333      6.000000
 -0.333333 -0.000000  0.333333      6.000000
 -0.166667  0.000000  0.333333      6.000000
  0.166667  0.166667  0.333333     12.000000
  0.333333  0.166667  0.333333     12.000000
  0.500000  0.166667  0.333333     12.000000
  0.333333  0.333333  0.333333      4.000000
  0.000000  0.000000  0.500000      1.000000
  0.166667 -0.000000  0.500000      6.000000
  0.333333  0.000000  0.500000      6.000000
  0.500000 -0.000000  0.500000      3.000000
  0.166667  0.166667  0.500000      6.000000
  0.333333  0.166667  0.500000     12.000000
  0.333333  0.333333  0.500000      2.000000
 
 Following cartesian coordinates:
            Coordinates               Weight
  0.000000  0.000000  0.000000      1.000000
  0.045650  0.026356  0.000000      6.000000
  0.091299  0.052712  0.000000      6.000000
  0.136949  0.079067  0.000000      3.000000
  0.045650  0.079067  0.000000      6.000000
  0.091299  0.105423  0.000000     12.000000
  0.091299  0.158135  0.000000      2.000000
  0.000000  0.000000  0.027709      2.000000
  0.045650  0.026356  0.027709      6.000000
  0.091299  0.052712  0.027709      6.000000
  0.136949  0.079067  0.027709      6.000000
 -0.091299 -0.052712  0.027709      6.000000
 -0.045650 -0.026356  0.027709      6.000000
  0.045650  0.079067  0.027709     12.000000
  0.091299  0.105423  0.027709     12.000000
  0.136949  0.131779  0.027709     12.000000
  0.091299  0.158135  0.027709      4.000000
  0.000000  0.000000  0.055417      2.000000
  0.045650  0.026356  0.055417      6.000000
  0.091299  0.052712  0.055417      6.000000
  0.136949  0.079067  0.055417      6.000000
 -0.091299 -0.052712  0.055417      6.000000
 -0.045650 -0.026356  0.055417      6.000000
  0.045650  0.079067  0.055417     12.000000
  0.091299  0.105423  0.055417     12.000000
  0.136949  0.131779  0.055417     12.000000
  0.091299  0.158135  0.055417      4.000000
  0.000000  0.000000  0.083126      1.000000
  0.045650  0.026356  0.083126      6.000000
  0.091299  0.052712  0.083126      6.000000
  0.136949  0.079067  0.083126      3.000000
  0.045650  0.079067  0.083126      6.000000
  0.091299  0.105423  0.083126     12.000000
  0.091299  0.158135  0.083126      2.000000
 
 TETIRR: Found    281 inequivalent tetrahedra from     1296
 
 Subroutine IBZKPT_HF returns following result:
 ==============================================
 
 Found    216 k-points in 1st BZ
 the following    216 k-points will be used (e.g. in the exchange kernel)
 Following reciprocal coordinates:   # in IRBZ
  0.000000  0.000000  0.000000    0.00462963   1 t-inv F
  0.166667 -0.000000  0.000000    0.00462963   2 t-inv F
  0.333333  0.000000  0.000000    0.00462963   3 t-inv F
  0.500000 -0.000000  0.000000    0.00462963   4 t-inv F
  0.166667  0.166667  0.000000    0.00462963   5 t-inv F
  0.333333  0.166667  0.000000    0.00462963   6 t-inv F
  0.333333  0.333333  0.000000    0.00462963   7 t-inv F
  0.000000  0.000000  0.166667    0.00462963   8 t-inv F
  0.166667 -0.000000  0.166667    0.00462963   9 t-inv F
  0.333333  0.000000  0.166667    0.00462963  10 t-inv F
  0.500000 -0.000000  0.166667    0.00462963  11 t-inv F
 -0.333333 -0.000000  0.166667    0.00462963  12 t-inv F
 -0.166667  0.000000  0.166667    0.00462963  13 t-inv F
  0.166667  0.166667  0.166667    0.00462963  14 t-inv F
  0.333333  0.166667  0.166667    0.00462963  15 t-inv F
  0.500000  0.166667  0.166667    0.00462963  16 t-inv F
  0.333333  0.333333  0.166667    0.00462963  17 t-inv F
  0.000000  0.000000  0.333333    0.00462963  18 t-inv F
  0.166667 -0.000000  0.333333    0.00462963  19 t-inv F
  0.333333  0.000000  0.333333    0.00462963  20 t-inv F
  0.500000 -0.000000  0.333333    0.00462963  21 t-inv F
 -0.333333 -0.000000  0.333333    0.00462963  22 t-inv F
 -0.166667  0.000000  0.333333    0.00462963  23 t-inv F
  0.166667  0.166667  0.333333    0.00462963  24 t-inv F
  0.333333  0.166667  0.333333    0.00462963  25 t-inv F
  0.500000  0.166667  0.333333    0.00462963  26 t-inv F
  0.333333  0.333333  0.333333    0.00462963  27 t-inv F
  0.000000  0.000000  0.500000    0.00462963  28 t-inv F
  0.166667 -0.000000  0.500000    0.00462963  29 t-inv F
  0.333333  0.000000  0.500000    0.00462963  30 t-inv F
  0.500000 -0.000000  0.500000    0.00462963  31 t-inv F
  0.166667  0.166667  0.500000    0.00462963  32 t-inv F
  0.333333  0.166667  0.500000    0.00462963  33 t-inv F
  0.333333  0.333333  0.500000    0.00462963  34 t-inv F
 -0.166667  0.000000  0.000000    0.00462963   2 t-inv F
 -0.166667  0.166667  0.000000    0.00462963   2 t-inv F
  0.166667 -0.166667  0.000000    0.00462963   2 t-inv F
 -0.000000 -0.166667  0.000000    0.00462963   2 t-inv F
  0.000000  0.166667  0.000000    0.00462963   2 t-inv F
 -0.333333 -0.000000  0.000000    0.00462963   3 t-inv F
 -0.333333  0.333333  0.000000    0.00462963   3 t-inv F
  0.333333 -0.333333  0.000000    0.00462963   3 t-inv F
  0.000000 -0.333333  0.000000    0.00462963   3 t-inv F
 -0.000000  0.333333  0.000000    0.00462963   3 t-inv F
 -0.500000  0.500000  0.000000    0.00462963   4 t-inv F
 -0.000000 -0.500000  0.000000    0.00462963   4 t-inv F
 -0.166667 -0.166667  0.000000    0.00462963   5 t-inv F
 -0.333333  0.166667  0.000000    0.00462963   5 t-inv F
  0.333333 -0.166667  0.000000    0.00462963   5 t-inv F
  0.166667 -0.333333  0.000000    0.00462963   5 t-inv F
 -0.166667  0.333333  0.000000    0.00462963   5 t-inv F
 -0.333333 -0.166667  0.000000    0.00462963   6 t-inv F
 -0.500000  0.333333  0.000000    0.00462963   6 t-inv F
  0.500000 -0.333333  0.000000    0.00462963   6 t-inv F
  0.166667 -0.500000  0.000000    0.00462963   6 t-inv F
 -0.166667  0.500000  0.000000    0.00462963   6 t-inv F
  0.333333 -0.500000  0.000000    0.00462963   6 t-inv F
 -0.333333  0.500000  0.000000    0.00462963   6 t-inv F
 -0.500000  0.166667  0.000000    0.00462963   6 t-inv F
  0.500000 -0.166667  0.000000    0.00462963   6 t-inv F
  0.166667  0.333333  0.000000    0.00462963   6 t-inv F
 -0.166667 -0.333333  0.000000    0.00462963   6 t-inv F
 -0.333333 -0.333333  0.000000    0.00462963   7 t-inv F
  0.000000  0.000000 -0.166667    0.00462963   8 t-inv F
 -0.166667  0.000000 -0.166667    0.00462963   9 t-inv F
 -0.166667  0.166667  0.166667    0.00462963   9 t-inv F
  0.166667 -0.166667 -0.166667    0.00462963   9 t-inv F
 -0.000000 -0.166667  0.166667    0.00462963   9 t-inv F
  0.000000  0.166667 -0.166667    0.00462963   9 t-inv F
 -0.333333 -0.000000 -0.166667    0.00462963  10 t-inv F
 -0.333333  0.333333  0.166667    0.00462963  10 t-inv F
  0.333333 -0.333333 -0.166667    0.00462963  10 t-inv F
  0.000000 -0.333333  0.166667    0.00462963  10 t-inv F
 -0.000000  0.333333 -0.166667    0.00462963  10 t-inv F
 -0.500000  0.000000 -0.166667    0.00462963  11 t-inv F
 -0.500000  0.500000  0.166667    0.00462963  11 t-inv F
  0.500000 -0.500000 -0.166667    0.00462963  11 t-inv F
 -0.000000 -0.500000  0.166667    0.00462963  11 t-inv F
  0.000000  0.500000 -0.166667    0.00462963  11 t-inv F
  0.333333  0.000000 -0.166667    0.00462963  12 t-inv F
  0.333333 -0.333333  0.166667    0.00462963  12 t-inv F
 -0.333333  0.333333 -0.166667    0.00462963  12 t-inv F
 -0.000000  0.333333  0.166667    0.00462963  12 t-inv F
  0.000000 -0.333333 -0.166667    0.00462963  12 t-inv F
  0.166667 -0.000000 -0.166667    0.00462963  13 t-inv F
  0.166667 -0.166667  0.166667    0.00462963  13 t-inv F
 -0.166667  0.166667 -0.166667    0.00462963  13 t-inv F
  0.000000  0.166667  0.166667    0.00462963  13 t-inv F
 -0.000000 -0.166667 -0.166667    0.00462963  13 t-inv F
 -0.166667 -0.166667 -0.166667    0.00462963  14 t-inv F
 -0.333333  0.166667  0.166667    0.00462963  14 t-inv F
  0.333333 -0.166667 -0.166667    0.00462963  14 t-inv F
  0.166667 -0.333333  0.166667    0.00462963  14 t-inv F
 -0.166667  0.333333 -0.166667    0.00462963  14 t-inv F
  0.166667 -0.333333 -0.166667    0.00462963  14 t-inv F
 -0.166667  0.333333  0.166667    0.00462963  14 t-inv F
 -0.333333  0.166667 -0.166667    0.00462963  14 t-inv F
  0.333333 -0.166667  0.166667    0.00462963  14 t-inv F
  0.166667  0.166667 -0.166667    0.00462963  14 t-inv F
 -0.166667 -0.166667  0.166667    0.00462963  14 t-inv F
 -0.333333 -0.166667 -0.166667    0.00462963  15 t-inv F
 -0.500000  0.333333  0.166667    0.00462963  15 t-inv F
  0.500000 -0.333333 -0.166667    0.00462963  15 t-inv F
  0.166667 -0.500000  0.166667    0.00462963  15 t-inv F
 -0.166667  0.500000 -0.166667    0.00462963  15 t-inv F
  0.333333 -0.500000 -0.166667    0.00462963  15 t-inv F
 -0.333333  0.500000  0.166667    0.00462963  15 t-inv F
 -0.500000  0.166667 -0.166667    0.00462963  15 t-inv F
  0.500000 -0.166667  0.166667    0.00462963  15 t-inv F
  0.166667  0.333333 -0.166667    0.00462963  15 t-inv F
 -0.166667 -0.333333  0.166667    0.00462963  15 t-inv F
 -0.500000 -0.166667 -0.166667    0.00462963  16 t-inv F
 -0.666667  0.500000  0.166667    0.00462963  16 t-inv F
  0.666667 -0.500000 -0.166667    0.00462963  16 t-inv F
  0.166667 -0.666667  0.166667    0.00462963  16 t-inv F
 -0.166667  0.666667 -0.166667    0.00462963  16 t-inv F
  0.500000 -0.666667 -0.166667    0.00462963  16 t-inv F
 -0.500000  0.666667  0.166667    0.00462963  16 t-inv F
 -0.666667  0.166667 -0.166667    0.00462963  16 t-inv F
  0.666667 -0.166667  0.166667    0.00462963  16 t-inv F
  0.166667  0.500000 -0.166667    0.00462963  16 t-inv F
 -0.166667 -0.500000  0.166667    0.00462963  16 t-inv F
 -0.333333 -0.333333 -0.166667    0.00462963  17 t-inv F
  0.333333 -0.666667 -0.166667    0.00462963  17 t-inv F
 -0.333333  0.666667  0.166667    0.00462963  17 t-inv F
  0.000000  0.000000 -0.333333    0.00462963  18 t-inv F
 -0.166667  0.000000 -0.333333    0.00462963  19 t-inv F
 -0.166667  0.166667  0.333333    0.00462963  19 t-inv F
  0.166667 -0.166667 -0.333333    0.00462963  19 t-inv F
 -0.000000 -0.166667  0.333333    0.00462963  19 t-inv F
  0.000000  0.166667 -0.333333    0.00462963  19 t-inv F
 -0.333333 -0.000000 -0.333333    0.00462963  20 t-inv F
 -0.333333  0.333333  0.333333    0.00462963  20 t-inv F
  0.333333 -0.333333 -0.333333    0.00462963  20 t-inv F
  0.000000 -0.333333  0.333333    0.00462963  20 t-inv F
 -0.000000  0.333333 -0.333333    0.00462963  20 t-inv F
 -0.500000  0.000000 -0.333333    0.00462963  21 t-inv F
 -0.500000  0.500000  0.333333    0.00462963  21 t-inv F
  0.500000 -0.500000 -0.333333    0.00462963  21 t-inv F
 -0.000000 -0.500000  0.333333    0.00462963  21 t-inv F
  0.000000  0.500000 -0.333333    0.00462963  21 t-inv F
  0.333333  0.000000 -0.333333    0.00462963  22 t-inv F
  0.333333 -0.333333  0.333333    0.00462963  22 t-inv F
 -0.333333  0.333333 -0.333333    0.00462963  22 t-inv F
 -0.000000  0.333333  0.333333    0.00462963  22 t-inv F
  0.000000 -0.333333 -0.333333    0.00462963  22 t-inv F
  0.166667 -0.000000 -0.333333    0.00462963  23 t-inv F
  0.166667 -0.166667  0.333333    0.00462963  23 t-inv F
 -0.166667  0.166667 -0.333333    0.00462963  23 t-inv F
  0.000000  0.166667  0.333333    0.00462963  23 t-inv F
 -0.000000 -0.166667 -0.333333    0.00462963  23 t-inv F
 -0.166667 -0.166667 -0.333333    0.00462963  24 t-inv F
 -0.333333  0.166667  0.333333    0.00462963  24 t-inv F
  0.333333 -0.166667 -0.333333    0.00462963  24 t-inv F
  0.166667 -0.333333  0.333333    0.00462963  24 t-inv F
 -0.166667  0.333333 -0.333333    0.00462963  24 t-inv F
  0.166667 -0.333333 -0.333333    0.00462963  24 t-inv F
 -0.166667  0.333333  0.333333    0.00462963  24 t-inv F
 -0.333333  0.166667 -0.333333    0.00462963  24 t-inv F
  0.333333 -0.166667  0.333333    0.00462963  24 t-inv F
  0.166667  0.166667 -0.333333    0.00462963  24 t-inv F
 -0.166667 -0.166667  0.333333    0.00462963  24 t-inv F
 -0.333333 -0.166667 -0.333333    0.00462963  25 t-inv F
 -0.500000  0.333333  0.333333    0.00462963  25 t-inv F
  0.500000 -0.333333 -0.333333    0.00462963  25 t-inv F
  0.166667 -0.500000  0.333333    0.00462963  25 t-inv F
 -0.166667  0.500000 -0.333333    0.00462963  25 t-inv F
  0.333333 -0.500000 -0.333333    0.00462963  25 t-inv F
 -0.333333  0.500000  0.333333    0.00462963  25 t-inv F
 -0.500000  0.166667 -0.333333    0.00462963  25 t-inv F
  0.500000 -0.166667  0.333333    0.00462963  25 t-inv F
  0.166667  0.333333 -0.333333    0.00462963  25 t-inv F
 -0.166667 -0.333333  0.333333    0.00462963  25 t-inv F
 -0.500000 -0.166667 -0.333333    0.00462963  26 t-inv F
 -0.666667  0.500000  0.333333    0.00462963  26 t-inv F
  0.666667 -0.500000 -0.333333    0.00462963  26 t-inv F
  0.166667 -0.666667  0.333333    0.00462963  26 t-inv F
 -0.166667  0.666667 -0.333333    0.00462963  26 t-inv F
  0.500000 -0.666667 -0.333333    0.00462963  26 t-inv F
 -0.500000  0.666667  0.333333    0.00462963  26 t-inv F
 -0.666667  0.166667 -0.333333    0.00462963  26 t-inv F
  0.666667 -0.166667  0.333333    0.00462963  26 t-inv F
  0.166667  0.500000 -0.333333    0.00462963  26 t-inv F
 -0.166667 -0.500000  0.333333    0.00462963  26 t-inv F
 -0.333333 -0.333333 -0.333333    0.00462963  27 t-inv F
  0.333333 -0.666667 -0.333333    0.00462963  27 t-inv F
 -0.333333  0.666667  0.333333    0.00462963  27 t-inv F
 -0.166667  0.000000 -0.500000    0.00462963  29 t-inv F
 -0.166667  0.166667  0.500000    0.00462963  29 t-inv F
  0.166667 -0.166667 -0.500000    0.00462963  29 t-inv F
 -0.000000 -0.166667  0.500000    0.00462963  29 t-inv F
  0.000000  0.166667 -0.500000    0.00462963  29 t-inv F
 -0.333333 -0.000000 -0.500000    0.00462963  30 t-inv F
 -0.333333  0.333333  0.500000    0.00462963  30 t-inv F
  0.333333 -0.333333 -0.500000    0.00462963  30 t-inv F
  0.000000 -0.333333  0.500000    0.00462963  30 t-inv F
 -0.000000  0.333333 -0.500000    0.00462963  30 t-inv F
 -0.500000  0.500000  0.500000    0.00462963  31 t-inv F
 -0.000000 -0.500000  0.500000    0.00462963  31 t-inv F
 -0.166667 -0.166667 -0.500000    0.00462963  32 t-inv F
 -0.333333  0.166667  0.500000    0.00462963  32 t-inv F
  0.333333 -0.166667 -0.500000    0.00462963  32 t-inv F
  0.166667 -0.333333  0.500000    0.00462963  32 t-inv F
 -0.166667  0.333333 -0.500000    0.00462963  32 t-inv F
 -0.333333 -0.166667 -0.500000    0.00462963  33 t-inv F
 -0.500000  0.333333  0.500000    0.00462963  33 t-inv F
  0.500000 -0.333333 -0.500000    0.00462963  33 t-inv F
  0.166667 -0.500000  0.500000    0.00462963  33 t-inv F
 -0.166667  0.500000 -0.500000    0.00462963  33 t-inv F
  0.333333 -0.500000 -0.500000    0.00462963  33 t-inv F
 -0.333333  0.500000  0.500000    0.00462963  33 t-inv F
 -0.500000  0.166667 -0.500000    0.00462963  33 t-inv F
  0.500000 -0.166667  0.500000    0.00462963  33 t-inv F
  0.166667  0.333333 -0.500000    0.00462963  33 t-inv F
 -0.166667 -0.333333  0.500000    0.00462963  33 t-inv F
 -0.333333 -0.333333 -0.500000    0.00462963  34 t-inv F


--------------------------------------------------------------------------------------------------------




 Dimension of arrays:
   k-points           NKPTS =     34   k-points in BZ     NKDIM =    216   number of bands    NBANDS=     64
   number of dos      NEDOS =    301   number of ions     NIONS =      3
   non local maximal  LDIM  =      6   non local SUM 2l+1 LMDIM =     18
   total plane-waves  NPLWV =  23040
   max r-space proj   IRMAX =      1   max aug-charges    IRDMAX=  15016
   dimension x,y,z NGX =    24 NGY =   24 NGZ =   40
   dimension x,y,z NGXF=    48 NGYF=   48 NGZF=   80
   support grid    NGXF=    48 NGYF=   48 NGZF=   80
   ions per type =               1   2
 NGX,Y,Z   is equivalent  to a cutoff of  10.93, 10.93, 11.06 a.u.
 NGXF,Y,Z  is equivalent  to a cutoff of  21.86, 21.86, 22.11 a.u.


 I would recommend the setting:
   dimension x,y,z NGX =    24 NGY =   24 NGZ =   39
 SYSTEM =  SnS2                                    
 POSCAR =  SnS2                                    

 Startparameter for this run:
   NWRITE =      2    write-flag & timer
   PREC   = accura    normal or accurate (medium, high low for compatibility)
   ISTART =      1    job   : 0-new  1-cont  2-samecut
   ICHARG =      0    charge: 1-file 2-atom 10-const
   ISPIN  =      1    spin polarized calculation?
   LNONCOLLINEAR =      F non collinear calculations
   LSORBIT =      F    spin-orbit coupling
   INIWAV =      1    electr: 0-lowe 1-rand  2-diag
   LASPH  =      T    aspherical Exc in radial PAW
   METAGGA=      F    non-selfconsistent MetaGGA calc.

 Electronic Relaxation 1
   ENCUT  =  400.0 eV  29.40 Ry    5.42 a.u.   5.95  5.95  9.81*2*pi/ulx,y,z
   ENINI  =  400.0     initial cutoff
   ENAUG  =  439.8 eV  augmentation charge cutoff
   NELM   =     60;   NELMIN=  2; NELMDL=  0     # of ELM steps 
   EDIFF  = 0.1E-07   stopping-criterion for ELM
   LREAL  =      F    real-space projection
   NLSPLINE    = F    spline interpolate recip. space projectors
   LCOMPAT=      F    compatible to vasp.4.4
   GGA_COMPAT  = T    GGA compatible to vasp.4.4-vasp.4.6
   LMAXPAW     = -100 max onsite density
   LMAXMIX     =    2 max onsite mixed and CHGCAR
   VOSKOWN=      0    Vosko Wilk Nusair interpolation
   ROPT   =    0.00000   0.00000
 Ionic relaxation
   EDIFFG = 0.1E-06   stopping-criterion for IOM
   NSW    =      0    number of steps for IOM
   NBLOCK =      1;   KBLOCK =      1    inner block; outer block 
   IBRION =     -1    ionic relax: 0-MD 1-quasi-New 2-CG
   NFREE  =      0    steps in history (QN), initial steepest desc. (CG)
   ISIF   =      2    stress and relaxation
   IWAVPR =     10    prediction:  0-non 1-charg 2-wave 3-comb
   ISYM   =      3    0-nonsym 1-usesym 2-fastsym
   LCORR  =      T    Harris-Foulkes like correction to forces

   POTIM  = 0.5000    time-step for ionic-motion
   TEIN   =    0.0    initial temperature
   TEBEG  =    0.0;   TEEND  =   0.0 temperature during run
   SMASS  =  -3.00    Nose mass-parameter (am)
   estimated Nose-frequenzy (Omega)   =  0.10E-29 period in steps =****** mass=  -0.305E-27a.u.
   SCALEE = 1.0000    scale energy and forces
   NPACO  =    256;   APACO  = 16.0  distance and # of slots for P.C.
   PSTRESS=    0.0 pullay stress

  Mass of Ions in am
   POMASS = 118.71 32.07
  Ionic Valenz
   ZVAL   =  14.00  6.00
  Atomic Wigner-Seitz radii
   RWIGS  =  -1.00 -1.00
  virtual crystal weights 
   VCA    =   1.00  1.00
   NELECT =      26.0000    total number of electrons
   NUPDOWN=      -1.0000    fix difference up-down

 DOS related values:
   EMIN   =  10.00;   EMAX   =-10.00  energy-range for DOS
   EFERMI =   0.00
   ISMEAR =    -5;   SIGMA  =   0.20  broadening in eV -4-tet -1-fermi 0-gaus

 Electronic relaxation 2 (details)
   IALGO  =     38    algorithm
   LDIAG  =      T    sub-space diagonalisation (order eigenvalues)
   LSUBROT=      F    optimize rotation matrix (better conditioning)
   TURBO    =      0    0=normal 1=particle mesh
   IRESTART =      0    0=no restart 2=restart with 2 vectors
   NREBOOT  =      0    no. of reboots
   NMIN     =      0    reboot dimension
   EREF     =   0.00    reference energy to select bands
   IMIX   =      1    mixing-type and parameters
     AMIX     =   0.40;   BMIX     =  1.00
     AMIX_MAG =   1.60;   BMIX_MAG =  1.00
     AMIN     =   0.10
     WC   =   100.;   INIMIX=   1;  MIXPRE=   1;  MAXMIX= -45

 Intra band minimization:
   WEIMIN = 0.0000     energy-eigenvalue tresh-hold
   EBREAK =  0.39E-10  absolut break condition
   DEPER  =   0.30     relativ break condition  

   TIME   =   0.40     timestep for ELM

  volume/ion in A,a.u.               =      23.15       156.19
  Fermi-wavevector in a.u.,A,eV,Ry     =   1.179965  2.229811 18.943643  1.392318
  Thomas-Fermi vector in A             =   2.316267
 
 Write flags
   LWAVE  =      T    write WAVECAR
   LCHARG =      T    write CHGCAR
   LVTOT  =      F    write LOCPOT, total local potential
   LVHAR  =      F    write LOCPOT, Hartree potential only
   LELF   =      F    write electronic localiz. function (ELF)
   LORBIT =      0    0 simple, 1 ext, 2 COOP (PROOUT)


 Dipole corrections
   LMONO  =      F    monopole corrections only (constant potential shift)
   LDIPOL =      F    correct potential (dipole corrections)
   IDIPOL =      0    1-x, 2-y, 3-z, 4-all directions 
   EPSILON=  1.0000000 bulk dielectric constant

 Exchange correlation treatment:
   GGA     =    PE    GGA type
   LEXCH   =     8    internal setting for exchange type
   VOSKOWN=      0    Vosko Wilk Nusair interpolation
   EXXOEP  =     0    0=HF, 1=EXX-LHF (local Hartree Fock) 2=EXX OEP
   LHFCALC =     T    Hartree Fock is set to
   LSYMGRAD=     F    symmetrize gradient (conserves proper symmetry)
   PRECFOCK=normal    Normal, Fast or Accurate (Low or Medium for compatibility)
   LRHFCALC=     F    long range Hartree Fock
   LRSCOR  =     F    long range correlation only (use DFT for short range part)
   LTHOMAS =     F    Thomas Fermi screening in HF
   LMODELHF=     F    short range full HF, long range fraction AEXX
   ENCUT4O =  -1.0   cutoff for four orbital integrals eV
   LMAXFOCK=     4    L truncation for augmentation on plane wave grid
   LMAXFOCKAE=   4    L truncation for all-electron charge restoration on plane wave grid
   NMAXFOCKAE=   1    number of basis functions for all-electron charge restoration
   LFOCKAEDFT=     F  apply the AE augmentation even for DFT
   NKREDX  =     1    reduce k-point grid by
   NKREDY  =     1    reduce k-point grid by
   NKREDZ  =     1    reduce k-point grid by
   SHIFTRED=     F    shift reduced grid of Gamma
   HFKIDENT=     F    idential grid for each k-point
   ODDONLY =     F    use only odd q-grid points
   EVENONLY=     F    use only even q-grid points
   HFALPHA =   -1.0000 decay constant for conv. correction
   MCALPHA =    0.0000 extent of test-charge in conv. correction in multipole expansion
   AEXX    =    1.0000 exact exchange contribution
   HFSCREEN=    0.0000 screening length (either q_TF or 0.3 A-1)
   HFSCREENC=   0.0000 screening length for correlation (either q_TF or 0.3 A-1)
   HFRCUT  =    0.0000 spherical cutoff for potential kernel
   ALDAX   =    0.0000 LDA exchange part
   AGGAX   =    0.0000 GGA exchange part
   ALDAC   =    0.0000 LDA correlation
   AGGAC   =    0.0000 GGA correlation
   NBANDSGWLOW=     1    first orbital included in HF term
   ENCUTFOCK=  -1.0 apply spherical cutoff to Coloumb kernel
 Linear response parameters
   LEPSILON=     F    determine dielectric tensor
   LRPA    =     F    only Hartree local field effects (RPA)
   LNABLA  =     F    use nabla operator in PAW spheres
   LVEL    =     F    velocity operator in full k-point grid
   LINTERFAST=   F  fast interpolation
   KINTER  =     0    interpolate to denser k-point grid
   CSHIFT  =0.1000    complex shift for real part using Kramers Kronig
   OMEGAMAX=  -1.0    maximum frequency
   DEG_THRESHOLD= 0.2000000E-02 threshold for treating states as degnerate
   RTIME   =    0.100 relaxation time in fs

 Orbital magnetization related:
   ORBITALMAG=     F  switch on orbital magnetization
   LCHIMAG   =     F  perturbation theory with respect to B field
   DQ        =  0.001000  dq finite difference perturbation B field

 Response functions by sum over occupied states:
   ALGO    =GW0        execute GW part
   LFXC    =     F    include DFT xc kernel in TD-HF and W
   LADDER  =     F    particle hole ladder diagrams for BSE/TD-HF and W (Nano-quanta)
   LHARTREE=     T    include Hartree terms (bubbles-RPA) in BSE/TD-HF
   IBSE    =     0    BSE modus: 0 exact, 1 time-evolution (store matrix), 10 time-evolution (implicit)
   KPOINT  =    -1   0   0   0    k-point index at which BSE equation is solved (and G at which response is eval.)
   LTRIPLET=     F    triplet instead of singlet excitation (BSE only)
   LRSRPA  =     F    range separated RPA (total - short) in ACFDT
   LTCTE   =     F    use test-charge test-electron dielectric function
   LTETE   =     F    use test-electron test-electron dielectric function
   LFXCEPS =     F    determine f_xc=epsilon-1/Xi Sharma and Gross kernel
   LFXHEG  =     F    model exchange using f_x(G,k_F) from free electron gas
   NATURALO=     0    0 natural orbitals, 1 only virtual, 2 only occupied-virtual rotation
   L2ORDER =     F    2nd order terms only
   LUSEW   =     F    use screened W from WXXXX.tmp files instead of (screened) HF kernel
   ENCUTGW = 266.7    cutoff for response function in eV
   ENCUTGWSOFT =  -2.0 soft cutoff for Coulomb kernel in GW response function in eV
   ENCUTLF =  -1.0    cutoff for local field effects
   LMAXMP2 =    -1    maximum L for one center terms
   SCISSOR =   0.0    scissor correction
   NOMEGA  =    50    number of frequencies
   NOMEGAR =    50    number of frequencies along real axis
   NBANDSGW=    -1    number of bands for which selfenergy shift is calculated
   NBANDSGWLOW=     1 lowest band included in GW (to exclude core correlation)
   NBANDSO =    -1    number of bands for electron-hole treatment (occupied)
   NBANDSV =    -1    number of bands for electron-hole treatment (virtual)
   NELM    =     1    number of iterations in solving QP/BSE equation
   NELMHF  =     1    number of iterations in the inner HF iteration
   DIM     =     3    dimensionality of system (0=0D molecules, 3=3D)
   ANTIRES =     0    antiresonant part (0) no TDA (1) w=0 exact (2) accurate
   OMEGAMAX= -30.0    maximum frequency
   OMEGAMIN= -30.000    minimum frequency
   OMEGATL =-200.0    maximum frequency of tail
   OMEGAGRID=     0    grid type (0 default)
   CSHIFT  =-0.100    complex shift used in evaluation of response functions
   SELFENERGY=   F    calculate selfenergy instead of QP shifts
   LSPECTRAL =   T    use spectral functions                   
   LSPECTRALGW=   F   use spectral functions to calculate int dz G(w-z) W(z) (more accurate)
   LSINGLES  =   F   calculate the singles contribution to the correlation energy
   LFERMIGW  =   F   update Fermi-energy in the Greens function

   ODDONLYGW =   F    avoid all even points for polarizability 
   EVENONLYGW=   F    avoid all odd  points for polarizability 
   NKREDLFX  =   1   NKREDLFY  =   1   NKREDLFZ  =   1

   TELESCOPE =   0   use telescope k-point sampling
   TAUPAR    =   1   number of TAU groups used in imaginary time calculation
   OMEGAPAR  =  -1   number of OMEGA groups used in imaginary frequency calculation
   MAXITERFT   =  30    max iterations in remez



--------------------------------------------------------------------------------------------------------


 Static calculation
 charge density and potential will be updated during run
 non-spin polarized calculation
 Variant of blocked Davidson
 Davidson routine will perform the subspace rotation
 perform sub-space diagonalisation
    after iterative eigenvector-optimisation
 Kerker-like  mixing scheme
 using additional bands           51
 reciprocal scheme for non local part
 use partial core corrections
 calculate Harris-corrections to forces 
   (improved forces if not selfconsistent)
 use gradient corrections 
 use of overlap-Matrix (Vanderbilt PP)
 Fermi weights with tetrahedron method with Bloechl corrections


--------------------------------------------------------------------------------------------------------


  energy-cutoff  :      400.00
  volume of cell :       69.44
      direct lattice vectors                 reciprocal lattice vectors
     3.651000000  0.000000000  0.000000000     0.273897562  0.158134819  0.000000000
    -1.825500000  3.161859000  0.000000000     0.000000000  0.316269638  0.000000000
     0.000000000  0.000000000  6.015000000     0.000000000  0.000000000  0.166251039

  length of vectors
     3.651000000  3.651000217  6.015000000     0.316269656  0.316269638  0.166251039


 
 old parameters found on file WAVECAR:
  energy-cutoff  :      400.00
  volume of cell :       69.44
      direct lattice vectors                 reciprocal lattice vectors
     3.651000000  0.000000000  0.000000000     0.273897562  0.158134819  0.000000000
    -1.825500000  3.161859000  0.000000000     0.000000000  0.316269638  0.000000000
     0.000000000  0.000000000  6.015000000     0.000000000  0.000000000  0.166251039

  length of vectors

 
 k-points in units of 2pi/SCALE and weight: Automatic 6x6x6                         
   0.00000000  0.00000000  0.00000000       0.005
   0.04564959  0.02635580  0.00000000       0.028
   0.09129919  0.05271161  0.00000000       0.028
   0.13694878  0.07906741  0.00000000       0.014
   0.04564959  0.07906741  0.00000000       0.028
   0.09129919  0.10542321  0.00000000       0.056
   0.09129919  0.15813482  0.00000000       0.009
   0.00000000  0.00000000  0.02770851       0.009
   0.04564959  0.02635580  0.02770851       0.028
   0.09129919  0.05271161  0.02770851       0.028
   0.13694878  0.07906741  0.02770851       0.028
  -0.09129919 -0.05271161  0.02770851       0.028
  -0.04564959 -0.02635580  0.02770851       0.028
   0.04564959  0.07906741  0.02770851       0.056
   0.09129919  0.10542321  0.02770851       0.056
   0.13694878  0.13177902  0.02770851       0.056
   0.09129919  0.15813482  0.02770851       0.019
   0.00000000  0.00000000  0.05541701       0.009
   0.04564959  0.02635580  0.05541701       0.028
   0.09129919  0.05271161  0.05541701       0.028
   0.13694878  0.07906741  0.05541701       0.028
  -0.09129919 -0.05271161  0.05541701       0.028
  -0.04564959 -0.02635580  0.05541701       0.028
   0.04564959  0.07906741  0.05541701       0.056
   0.09129919  0.10542321  0.05541701       0.056
   0.13694878  0.13177902  0.05541701       0.056
   0.09129919  0.15813482  0.05541701       0.019
   0.00000000  0.00000000  0.08312552       0.005
   0.04564959  0.02635580  0.08312552       0.028
   0.09129919  0.05271161  0.08312552       0.028
   0.13694878  0.07906741  0.08312552       0.014
   0.04564959  0.07906741  0.08312552       0.028
   0.09129919  0.10542321  0.08312552       0.056
   0.09129919  0.15813482  0.08312552       0.009
 
 k-points in reciprocal lattice and weights: Automatic 6x6x6                         
   0.00000000  0.00000000  0.00000000       0.005
   0.16666667 -0.00000000  0.00000000       0.028
   0.33333333  0.00000000  0.00000000       0.028
   0.50000000 -0.00000000  0.00000000       0.014
   0.16666667  0.16666667  0.00000000       0.028
   0.33333333  0.16666667  0.00000000       0.056
   0.33333333  0.33333333  0.00000000       0.009
   0.00000000  0.00000000  0.16666667       0.009
   0.16666667 -0.00000000  0.16666667       0.028
   0.33333333  0.00000000  0.16666667       0.028
   0.50000000 -0.00000000  0.16666667       0.028
  -0.33333333 -0.00000000  0.16666667       0.028
  -0.16666667  0.00000000  0.16666667       0.028
   0.16666667  0.16666667  0.16666667       0.056
   0.33333333  0.16666667  0.16666667       0.056
   0.50000000  0.16666667  0.16666667       0.056
   0.33333333  0.33333333  0.16666667       0.019
   0.00000000  0.00000000  0.33333333       0.009
   0.16666667 -0.00000000  0.33333333       0.028
   0.33333333  0.00000000  0.33333333       0.028
   0.50000000 -0.00000000  0.33333333       0.028
  -0.33333333 -0.00000000  0.33333333       0.028
  -0.16666667  0.00000000  0.33333333       0.028
   0.16666667  0.16666667  0.33333333       0.056
   0.33333333  0.16666667  0.33333333       0.056
   0.50000000  0.16666667  0.33333333       0.056
   0.33333333  0.33333333  0.33333333       0.019
   0.00000000  0.00000000  0.50000000       0.005
   0.16666667 -0.00000000  0.50000000       0.028
   0.33333333  0.00000000  0.50000000       0.028
   0.50000000 -0.00000000  0.50000000       0.014
   0.16666667  0.16666667  0.50000000       0.028
   0.33333333  0.16666667  0.50000000       0.056
   0.33333333  0.33333333  0.50000000       0.009
 
 position of ions in fractional coordinates (direct lattice) 
   0.00000000  0.00000000  0.00000000
   0.33333300  0.66666600  0.24520076
   0.66666600  0.33333300  0.75479994
 
 position of ions in cartesian coordinates  (Angst):
   0.00000000  0.00000000  0.00000000
   0.00000000  2.10790389  1.47488259
   1.82549817  1.05395195  4.54012162
 


--------------------------------------------------------------------------------------------------------


 k-point  1 :   0.0000 0.0000 0.0000  plane waves:    1273
 k-point  2 :   0.1667-0.0000 0.0000  plane waves:    1248
 k-point  3 :   0.3333 0.0000 0.0000  plane waves:    1266
 k-point  4 :   0.5000-0.0000 0.0000  plane waves:    1244
 k-point  5 :   0.1667 0.1667 0.0000  plane waves:    1266
 k-point  6 :   0.3333 0.1667 0.0000  plane waves:    1262
 k-point  7 :   0.3333 0.3333 0.0000  plane waves:    1254
 k-point  8 :   0.0000 0.0000 0.1667  plane waves:    1261
 k-point  9 :   0.1667-0.0000 0.1667  plane waves:    1251
 k-point 10 :   0.3333 0.0000 0.1667  plane waves:    1259
 k-point 11 :   0.5000-0.0000 0.1667  plane waves:    1264
 k-point 12 :  -0.3333-0.0000 0.1667  plane waves:    1259
 k-point 13 :  -0.1667 0.0000 0.1667  plane waves:    1251
 k-point 14 :   0.1667 0.1667 0.1667  plane waves:    1262
 k-point 15 :   0.3333 0.1667 0.1667  plane waves:    1265
 k-point 16 :   0.5000 0.1667 0.1667  plane waves:    1265
 k-point 17 :   0.3333 0.3333 0.1667  plane waves:    1266
 k-point 18 :   0.0000 0.0000 0.3333  plane waves:    1232
 k-point 19 :   0.1667-0.0000 0.3333  plane waves:    1247
 k-point 20 :   0.3333 0.0000 0.3333  plane waves:    1257
 k-point 21 :   0.5000-0.0000 0.3333  plane waves:    1274
 k-point 22 :  -0.3333-0.0000 0.3333  plane waves:    1257
 k-point 23 :  -0.1667 0.0000 0.3333  plane waves:    1247
 k-point 24 :   0.1667 0.1667 0.3333  plane waves:    1255
 k-point 25 :   0.3333 0.1667 0.3333  plane waves:    1271
 k-point 26 :   0.5000 0.1667 0.3333  plane waves:    1271
 k-point 27 :   0.3333 0.3333 0.3333  plane waves:    1284
 k-point 28 :   0.0000 0.0000 0.5000  plane waves:    1208
 k-point 29 :   0.1667-0.0000 0.5000  plane waves:    1256
 k-point 30 :   0.3333 0.0000 0.5000  plane waves:    1260
 k-point 31 :   0.5000-0.0000 0.5000  plane waves:    1260
 k-point 32 :   0.1667 0.1667 0.5000  plane waves:    1264
 k-point 33 :   0.3333 0.1667 0.5000  plane waves:    1264
 k-point 34 :   0.3333 0.3333 0.5000  plane waves:    1290

 maximum and minimum number of plane-waves per node :      1290     1208

 maximum number of plane-waves:      1290
 maximum index in each direction: 
   IXMAX=    6   IYMAX=    5   IZMAX=    9
   IXMIN=   -6   IYMIN=   -6   IZMIN=  -10

 WARNING: aliasing errors must be expected set NGX to  26 to avoid them
 NGY is ok and might be reduce to  24
 NGZ is ok and might be reduce to  40
 aliasing errors are usually negligible using standard VASP settings
 and one can safely disregard these warnings

 serial   3D FFT for wavefunctions
 parallel 3D FFT for charge:
    minimum data exchange during FFTs selected (reduces bandwidth)


 FFT grid for exact exchange (Hartree Fock) 
  NGX = 18; NGY = 18; NGZ = 30

 
 Radii for the augmentation spheres in the non-local exchange
 for species   1 augmentation radius   1.089 (default was   1.089)
 error exchange integrals (PW-AE in eV) (mean, max) 0.790 5.267 density error[0,qmax] 0.0147
 for species   2 augmentation radius   0.970 (default was   0.970)
 error exchange integrals (PW-AE in eV) (mean, max) 0.052 0.429 density error[0,qmax] 0.0056
 Maximum index for augmentation-charges in exchange          767
  SETUP_FOCK is finished

 total amount of memory used by VASP on root node    60364. kBytes
========================================================================

   base      :      30000. kBytes
   nonl-proj :      12713. kBytes
   fftplans  :       1680. kBytes
   grid      :       3557. kBytes
   one-center:         46. kBytes
   HF        :        259. kBytes
   nonlr-proj:        551. kBytes
   wavefun   :      11558. kBytes
 
     INWAV:  cpu time    0.1960: real time    0.1962
 charge density for first step will be calculated from the start-wavefunctions


--------------------------------------------------------------------------------------------------------


 Maximum index for augmentation-charges         3585 (set IRDMAX)


--------------------------------------------------------------------------------------------------------


 initial charge from wavefunction
 FEWALD executed in parallel
    FEWALD:  cpu time    0.0000: real time    0.0002

 The Fermi energy was updated, please check that it is located mid-gap
 values below the HOMO (VB) or above the LUMO (CB) will cause erroneous energies
 E-fermi :   5.1110

 Response functions by sum over occupied states:
 ===============================================
   NOMEGA  =    50    number of frequencies
   NOMEGAR =    50    number of frequencies along real axis
   OMEGAMAX=  16.12   maximum frequency
   OMEGAMIN=   0.76   minimum frequency
   OMEGATL = 186.30   maximum frequency of tail
   CSHIFT  =  0.419   complex shift used in evaluation of response functions


 Energies w= 
 ============
   0.000   0.000   0.640   0.000   1.278   0.000   1.912   0.000   2.538   0.000
   3.156   0.000   3.765   0.000   4.364   0.000   4.952   0.000   5.529   0.000
   6.096   0.000   6.655   0.000   7.205   0.000   7.748   0.000   8.285   0.000
   8.819   0.000   9.350   0.000   9.881   0.000  10.414   0.000  10.951   0.000
  11.494   0.000  12.045   0.000  12.609   0.000  13.187   0.000  13.782   0.000
  14.400   0.000  15.044   0.000  15.719   0.000  16.431   0.000  17.186   0.000
  17.994   0.000  18.863   0.000  19.805   0.000  20.834   0.000  21.968   0.000
  23.230   0.000  24.647   0.000  26.257   0.000  28.107   0.000  30.262   0.000
  32.811   0.000  35.881   0.000  39.652   0.000  44.403   0.000  50.572   0.000
  58.903   0.000  70.755   0.000  88.920   0.000 120.170   0.000 186.303   0.000
 

IMPORTANT INFORMATION: All symmetrisations will be switched off!
NOSYMM: (Re-)initialisation of all symmetry stuff for point group C_1.

 
 KPOINTS: Automatic 6x6x6                         

Automatic generation of k-mesh.
Space group operators:
 irot       det(A)        alpha          n_x          n_y          n_z        tau_x        tau_y        tau_z
    1     1.000000     0.000000     1.000000     0.000000     0.000000     0.000000     0.000000     0.000000
 
 Subroutine IBZKPT returns following result:
 ===========================================
 
 Found    216 irreducible k-points:
 
 Following reciprocal coordinates:
            Coordinates               Weight
  0.000000  0.000000  0.000000      1.000000
  0.166667 -0.000000  0.000000      1.000000
  0.333333  0.000000  0.000000      1.000000
  0.500000 -0.000000  0.000000      1.000000
 -0.333333 -0.000000  0.000000      1.000000
 -0.166667  0.000000  0.000000      1.000000
  0.000000  0.166667  0.000000      1.000000
  0.166667  0.166667  0.000000      1.000000
  0.333333  0.166667  0.000000      1.000000
  0.500000  0.166667  0.000000      1.000000
 -0.333333  0.166667  0.000000      1.000000
 -0.166667  0.166667  0.000000      1.000000
  0.000000  0.333333  0.000000      1.000000
  0.166667  0.333333  0.000000      1.000000
  0.333333  0.333333  0.000000      1.000000
  0.500000  0.333333  0.000000      1.000000
 -0.333333  0.333333  0.000000      1.000000
 -0.166667  0.333333  0.000000      1.000000
  0.000000  0.500000  0.000000      1.000000
  0.166667  0.500000  0.000000      1.000000
  0.333333  0.500000  0.000000      1.000000
  0.500000  0.500000  0.000000      1.000000
 -0.333333  0.500000  0.000000      1.000000
 -0.166667  0.500000  0.000000      1.000000
  0.000000 -0.333333  0.000000      1.000000
  0.166667 -0.333333  0.000000      1.000000
  0.333333 -0.333333  0.000000      1.000000
  0.500000 -0.333333  0.000000      1.000000
 -0.333333 -0.333333  0.000000      1.000000
 -0.166667 -0.333333  0.000000      1.000000
  0.000000 -0.166667  0.000000      1.000000
  0.166667 -0.166667  0.000000      1.000000
  0.333333 -0.166667  0.000000      1.000000
  0.500000 -0.166667  0.000000      1.000000
 -0.333333 -0.166667  0.000000      1.000000
 -0.166667 -0.166667  0.000000      1.000000
  0.000000  0.000000  0.166667      1.000000
  0.166667 -0.000000  0.166667      1.000000
  0.333333  0.000000  0.166667      1.000000
  0.500000 -0.000000  0.166667      1.000000
 -0.333333 -0.000000  0.166667      1.000000
 -0.166667  0.000000  0.166667      1.000000
  0.000000  0.166667  0.166667      1.000000
  0.166667  0.166667  0.166667      1.000000
  0.333333  0.166667  0.166667      1.000000
  0.500000  0.166667  0.166667      1.000000
 -0.333333  0.166667  0.166667      1.000000
 -0.166667  0.166667  0.166667      1.000000
  0.000000  0.333333  0.166667      1.000000
  0.166667  0.333333  0.166667      1.000000
  0.333333  0.333333  0.166667      1.000000
  0.500000  0.333333  0.166667      1.000000
 -0.333333  0.333333  0.166667      1.000000
 -0.166667  0.333333  0.166667      1.000000
  0.000000  0.500000  0.166667      1.000000
  0.166667  0.500000  0.166667      1.000000
  0.333333  0.500000  0.166667      1.000000
  0.500000  0.500000  0.166667      1.000000
 -0.333333  0.500000  0.166667      1.000000
 -0.166667  0.500000  0.166667      1.000000
  0.000000 -0.333333  0.166667      1.000000
  0.166667 -0.333333  0.166667      1.000000
  0.333333 -0.333333  0.166667      1.000000
  0.500000 -0.333333  0.166667      1.000000
 -0.333333 -0.333333  0.166667      1.000000
 -0.166667 -0.333333  0.166667      1.000000
  0.000000 -0.166667  0.166667      1.000000
  0.166667 -0.166667  0.166667      1.000000
  0.333333 -0.166667  0.166667      1.000000
  0.500000 -0.166667  0.166667      1.000000
 -0.333333 -0.166667  0.166667      1.000000
 -0.166667 -0.166667  0.166667      1.000000
  0.000000  0.000000  0.333333      1.000000
  0.166667 -0.000000  0.333333      1.000000
  0.333333  0.000000  0.333333      1.000000
  0.500000 -0.000000  0.333333      1.000000
 -0.333333 -0.000000  0.333333      1.000000
 -0.166667  0.000000  0.333333      1.000000
  0.000000  0.166667  0.333333      1.000000
  0.166667  0.166667  0.333333      1.000000
  0.333333  0.166667  0.333333      1.000000
  0.500000  0.166667  0.333333      1.000000
 -0.333333  0.166667  0.333333      1.000000
 -0.166667  0.166667  0.333333      1.000000
  0.000000  0.333333  0.333333      1.000000
  0.166667  0.333333  0.333333      1.000000
  0.333333  0.333333  0.333333      1.000000
  0.500000  0.333333  0.333333      1.000000
 -0.333333  0.333333  0.333333      1.000000
 -0.166667  0.333333  0.333333      1.000000
  0.000000  0.500000  0.333333      1.000000
  0.166667  0.500000  0.333333      1.000000
  0.333333  0.500000  0.333333      1.000000
  0.500000  0.500000  0.333333      1.000000
 -0.333333  0.500000  0.333333      1.000000
 -0.166667  0.500000  0.333333      1.000000
  0.000000 -0.333333  0.333333      1.000000
  0.166667 -0.333333  0.333333      1.000000
  0.333333 -0.333333  0.333333      1.000000
  0.500000 -0.333333  0.333333      1.000000
 -0.333333 -0.333333  0.333333      1.000000
 -0.166667 -0.333333  0.333333      1.000000
  0.000000 -0.166667  0.333333      1.000000
  0.166667 -0.166667  0.333333      1.000000
  0.333333 -0.166667  0.333333      1.000000
  0.500000 -0.166667  0.333333      1.000000
 -0.333333 -0.166667  0.333333      1.000000
 -0.166667 -0.166667  0.333333      1.000000
  0.000000  0.000000  0.500000      1.000000
  0.166667 -0.000000  0.500000      1.000000
  0.333333  0.000000  0.500000      1.000000
  0.500000 -0.000000  0.500000      1.000000
 -0.333333 -0.000000  0.500000      1.000000
 -0.166667  0.000000  0.500000      1.000000
  0.000000  0.166667  0.500000      1.000000
  0.166667  0.166667  0.500000      1.000000
  0.333333  0.166667  0.500000      1.000000
  0.500000  0.166667  0.500000      1.000000
 -0.333333  0.166667  0.500000      1.000000
 -0.166667  0.166667  0.500000      1.000000
  0.000000  0.333333  0.500000      1.000000
  0.166667  0.333333  0.500000      1.000000
  0.333333  0.333333  0.500000      1.000000
  0.500000  0.333333  0.500000      1.000000
 -0.333333  0.333333  0.500000      1.000000
 -0.166667  0.333333  0.500000      1.000000
  0.000000  0.500000  0.500000      1.000000
  0.166667  0.500000  0.500000      1.000000
  0.333333  0.500000  0.500000      1.000000
  0.500000  0.500000  0.500000      1.000000
 -0.333333  0.500000  0.500000      1.000000
 -0.166667  0.500000  0.500000      1.000000
  0.000000 -0.333333  0.500000      1.000000
  0.166667 -0.333333  0.500000      1.000000
  0.333333 -0.333333  0.500000      1.000000
  0.500000 -0.333333  0.500000      1.000000
 -0.333333 -0.333333  0.500000      1.000000
 -0.166667 -0.333333  0.500000      1.000000
  0.000000 -0.166667  0.500000      1.000000
  0.166667 -0.166667  0.500000      1.000000
  0.333333 -0.166667  0.500000      1.000000
  0.500000 -0.166667  0.500000      1.000000
 -0.333333 -0.166667  0.500000      1.000000
 -0.166667 -0.166667  0.500000      1.000000
  0.000000  0.000000 -0.333333      1.000000
  0.166667 -0.000000 -0.333333      1.000000
  0.333333  0.000000 -0.333333      1.000000
  0.500000 -0.000000 -0.333333      1.000000
 -0.333333 -0.000000 -0.333333      1.000000
 -0.166667  0.000000 -0.333333      1.000000
  0.000000  0.166667 -0.333333      1.000000
  0.166667  0.166667 -0.333333      1.000000
  0.333333  0.166667 -0.333333      1.000000
  0.500000  0.166667 -0.333333      1.000000
 -0.333333  0.166667 -0.333333      1.000000
 -0.166667  0.166667 -0.333333      1.000000
  0.000000  0.333333 -0.333333      1.000000
  0.166667  0.333333 -0.333333      1.000000
  0.333333  0.333333 -0.333333      1.000000
  0.500000  0.333333 -0.333333      1.000000
 -0.333333  0.333333 -0.333333      1.000000
 -0.166667  0.333333 -0.333333      1.000000
  0.000000  0.500000 -0.333333      1.000000
  0.166667  0.500000 -0.333333      1.000000
  0.333333  0.500000 -0.333333      1.000000
  0.500000  0.500000 -0.333333      1.000000
 -0.333333  0.500000 -0.333333      1.000000
 -0.166667  0.500000 -0.333333      1.000000
  0.000000 -0.333333 -0.333333      1.000000
  0.166667 -0.333333 -0.333333      1.000000
  0.333333 -0.333333 -0.333333      1.000000
  0.500000 -0.333333 -0.333333      1.000000
 -0.333333 -0.333333 -0.333333      1.000000
 -0.166667 -0.333333 -0.333333      1.000000
  0.000000 -0.166667 -0.333333      1.000000
  0.166667 -0.166667 -0.333333      1.000000
  0.333333 -0.166667 -0.333333      1.000000
  0.500000 -0.166667 -0.333333      1.000000
 -0.333333 -0.166667 -0.333333      1.000000
 -0.166667 -0.166667 -0.333333      1.000000
  0.000000  0.000000 -0.166667      1.000000
  0.166667 -0.000000 -0.166667      1.000000
  0.333333  0.000000 -0.166667      1.000000
  0.500000 -0.000000 -0.166667      1.000000
 -0.333333 -0.000000 -0.166667      1.000000
 -0.166667  0.000000 -0.166667      1.000000
  0.000000  0.166667 -0.166667      1.000000
  0.166667  0.166667 -0.166667      1.000000
  0.333333  0.166667 -0.166667      1.000000
  0.500000  0.166667 -0.166667      1.000000
 -0.333333  0.166667 -0.166667      1.000000
 -0.166667  0.166667 -0.166667      1.000000
  0.000000  0.333333 -0.166667      1.000000
  0.166667  0.333333 -0.166667      1.000000
  0.333333  0.333333 -0.166667      1.000000
  0.500000  0.333333 -0.166667      1.000000
 -0.333333  0.333333 -0.166667      1.000000
 -0.166667  0.333333 -0.166667      1.000000
  0.000000  0.500000 -0.166667      1.000000
  0.166667  0.500000 -0.166667      1.000000
  0.333333  0.500000 -0.166667      1.000000
  0.500000  0.500000 -0.166667      1.000000
 -0.333333  0.500000 -0.166667      1.000000
 -0.166667  0.500000 -0.166667      1.000000
  0.000000 -0.333333 -0.166667      1.000000
  0.166667 -0.333333 -0.166667      1.000000
  0.333333 -0.333333 -0.166667      1.000000
  0.500000 -0.333333 -0.166667      1.000000
 -0.333333 -0.333333 -0.166667      1.000000
 -0.166667 -0.333333 -0.166667      1.000000
  0.000000 -0.166667 -0.166667      1.000000
  0.166667 -0.166667 -0.166667      1.000000
  0.333333 -0.166667 -0.166667      1.000000
  0.500000 -0.166667 -0.166667      1.000000
 -0.333333 -0.166667 -0.166667      1.000000
 -0.166667 -0.166667 -0.166667      1.000000
 
 Following cartesian coordinates:
            Coordinates               Weight
  0.000000  0.000000  0.000000      1.000000
  0.045650  0.026356  0.000000      1.000000
  0.091299  0.052712  0.000000      1.000000
  0.136949  0.079067  0.000000      1.000000
 -0.091299 -0.052712  0.000000      1.000000
 -0.045650 -0.026356  0.000000      1.000000
  0.000000  0.052712  0.000000      1.000000
  0.045650  0.079067  0.000000      1.000000
  0.091299  0.105423  0.000000      1.000000
  0.136949  0.131779  0.000000      1.000000
 -0.091299  0.000000  0.000000      1.000000
 -0.045650  0.026356  0.000000      1.000000
  0.000000  0.105423  0.000000      1.000000
  0.045650  0.131779  0.000000      1.000000
  0.091299  0.158135  0.000000      1.000000
  0.136949  0.184491  0.000000      1.000000
 -0.091299  0.052712  0.000000      1.000000
 -0.045650  0.079067  0.000000      1.000000
  0.000000  0.158135  0.000000      1.000000
  0.045650  0.184491  0.000000      1.000000
  0.091299  0.210846  0.000000      1.000000
  0.136949  0.237202  0.000000      1.000000
 -0.091299  0.105423  0.000000      1.000000
 -0.045650  0.131779  0.000000      1.000000
  0.000000 -0.105423  0.000000      1.000000
  0.045650 -0.079067  0.000000      1.000000
  0.091299 -0.052712  0.000000      1.000000
  0.136949 -0.026356  0.000000      1.000000
 -0.091299 -0.158135  0.000000      1.000000
 -0.045650 -0.131779  0.000000      1.000000
  0.000000 -0.052712  0.000000      1.000000
  0.045650 -0.026356  0.000000      1.000000
  0.091299 -0.000000  0.000000      1.000000
  0.136949  0.026356  0.000000      1.000000
 -0.091299 -0.105423  0.000000      1.000000
 -0.045650 -0.079067  0.000000      1.000000
  0.000000  0.000000  0.027709      1.000000
  0.045650  0.026356  0.027709      1.000000
  0.091299  0.052712  0.027709      1.000000
  0.136949  0.079067  0.027709      1.000000
 -0.091299 -0.052712  0.027709      1.000000
 -0.045650 -0.026356  0.027709      1.000000
  0.000000  0.052712  0.027709      1.000000
  0.045650  0.079067  0.027709      1.000000
  0.091299  0.105423  0.027709      1.000000
  0.136949  0.131779  0.027709      1.000000
 -0.091299  0.000000  0.027709      1.000000
 -0.045650  0.026356  0.027709      1.000000
  0.000000  0.105423  0.027709      1.000000
  0.045650  0.131779  0.027709      1.000000
  0.091299  0.158135  0.027709      1.000000
  0.136949  0.184491  0.027709      1.000000
 -0.091299  0.052712  0.027709      1.000000
 -0.045650  0.079067  0.027709      1.000000
  0.000000  0.158135  0.027709      1.000000
  0.045650  0.184491  0.027709      1.000000
  0.091299  0.210846  0.027709      1.000000
  0.136949  0.237202  0.027709      1.000000
 -0.091299  0.105423  0.027709      1.000000
 -0.045650  0.131779  0.027709      1.000000
  0.000000 -0.105423  0.027709      1.000000
  0.045650 -0.079067  0.027709      1.000000
  0.091299 -0.052712  0.027709      1.000000
  0.136949 -0.026356  0.027709      1.000000
 -0.091299 -0.158135  0.027709      1.000000
 -0.045650 -0.131779  0.027709      1.000000
  0.000000 -0.052712  0.027709      1.000000
  0.045650 -0.026356  0.027709      1.000000
  0.091299 -0.000000  0.027709      1.000000
  0.136949  0.026356  0.027709      1.000000
 -0.091299 -0.105423  0.027709      1.000000
 -0.045650 -0.079067  0.027709      1.000000
  0.000000  0.000000  0.055417      1.000000
  0.045650  0.026356  0.055417      1.000000
  0.091299  0.052712  0.055417      1.000000
  0.136949  0.079067  0.055417      1.000000
 -0.091299 -0.052712  0.055417      1.000000
 -0.045650 -0.026356  0.055417      1.000000
  0.000000  0.052712  0.055417      1.000000
  0.045650  0.079067  0.055417      1.000000
  0.091299  0.105423  0.055417      1.000000
  0.136949  0.131779  0.055417      1.000000
 -0.091299  0.000000  0.055417      1.000000
 -0.045650  0.026356  0.055417      1.000000
  0.000000  0.105423  0.055417      1.000000
  0.045650  0.131779  0.055417      1.000000
  0.091299  0.158135  0.055417      1.000000
  0.136949  0.184491  0.055417      1.000000
 -0.091299  0.052712  0.055417      1.000000
 -0.045650  0.079067  0.055417      1.000000
  0.000000  0.158135  0.055417      1.000000
  0.045650  0.184491  0.055417      1.000000
  0.091299  0.210846  0.055417      1.000000
  0.136949  0.237202  0.055417      1.000000
 -0.091299  0.105423  0.055417      1.000000
 -0.045650  0.131779  0.055417      1.000000
  0.000000 -0.105423  0.055417      1.000000
  0.045650 -0.079067  0.055417      1.000000
  0.091299 -0.052712  0.055417      1.000000
  0.136949 -0.026356  0.055417      1.000000
 -0.091299 -0.158135  0.055417      1.000000
 -0.045650 -0.131779  0.055417      1.000000
  0.000000 -0.052712  0.055417      1.000000
  0.045650 -0.026356  0.055417      1.000000
  0.091299 -0.000000  0.055417      1.000000
  0.136949  0.026356  0.055417      1.000000
 -0.091299 -0.105423  0.055417      1.000000
 -0.045650 -0.079067  0.055417      1.000000
  0.000000  0.000000  0.083126      1.000000
  0.045650  0.026356  0.083126      1.000000
  0.091299  0.052712  0.083126      1.000000
  0.136949  0.079067  0.083126      1.000000
 -0.091299 -0.052712  0.083126      1.000000
 -0.045650 -0.026356  0.083126      1.000000
  0.000000  0.052712  0.083126      1.000000
  0.045650  0.079067  0.083126      1.000000
  0.091299  0.105423  0.083126      1.000000
  0.136949  0.131779  0.083126      1.000000
 -0.091299  0.000000  0.083126      1.000000
 -0.045650  0.026356  0.083126      1.000000
  0.000000  0.105423  0.083126      1.000000
  0.045650  0.131779  0.083126      1.000000
  0.091299  0.158135  0.083126      1.000000
  0.136949  0.184491  0.083126      1.000000
 -0.091299  0.052712  0.083126      1.000000
 -0.045650  0.079067  0.083126      1.000000
  0.000000  0.158135  0.083126      1.000000
  0.045650  0.184491  0.083126      1.000000
  0.091299  0.210846  0.083126      1.000000
  0.136949  0.237202  0.083126      1.000000
 -0.091299  0.105423  0.083126      1.000000
 -0.045650  0.131779  0.083126      1.000000
  0.000000 -0.105423  0.083126      1.000000
  0.045650 -0.079067  0.083126      1.000000
  0.091299 -0.052712  0.083126      1.000000
  0.136949 -0.026356  0.083126      1.000000
 -0.091299 -0.158135  0.083126      1.000000
 -0.045650 -0.131779  0.083126      1.000000
  0.000000 -0.052712  0.083126      1.000000
  0.045650 -0.026356  0.083126      1.000000
  0.091299 -0.000000  0.083126      1.000000
  0.136949  0.026356  0.083126      1.000000
 -0.091299 -0.105423  0.083126      1.000000
 -0.045650 -0.079067  0.083126      1.000000
  0.000000  0.000000 -0.055417      1.000000
  0.045650  0.026356 -0.055417      1.000000
  0.091299  0.052712 -0.055417      1.000000
  0.136949  0.079067 -0.055417      1.000000
 -0.091299 -0.052712 -0.055417      1.000000
 -0.045650 -0.026356 -0.055417      1.000000
  0.000000  0.052712 -0.055417      1.000000
  0.045650  0.079067 -0.055417      1.000000
  0.091299  0.105423 -0.055417      1.000000
  0.136949  0.131779 -0.055417      1.000000
 -0.091299  0.000000 -0.055417      1.000000
 -0.045650  0.026356 -0.055417      1.000000
  0.000000  0.105423 -0.055417      1.000000
  0.045650  0.131779 -0.055417      1.000000
  0.091299  0.158135 -0.055417      1.000000
  0.136949  0.184491 -0.055417      1.000000
 -0.091299  0.052712 -0.055417      1.000000
 -0.045650  0.079067 -0.055417      1.000000
  0.000000  0.158135 -0.055417      1.000000
  0.045650  0.184491 -0.055417      1.000000
  0.091299  0.210846 -0.055417      1.000000
  0.136949  0.237202 -0.055417      1.000000
 -0.091299  0.105423 -0.055417      1.000000
 -0.045650  0.131779 -0.055417      1.000000
  0.000000 -0.105423 -0.055417      1.000000
  0.045650 -0.079067 -0.055417      1.000000
  0.091299 -0.052712 -0.055417      1.000000
  0.136949 -0.026356 -0.055417      1.000000
 -0.091299 -0.158135 -0.055417      1.000000
 -0.045650 -0.131779 -0.055417      1.000000
  0.000000 -0.052712 -0.055417      1.000000
  0.045650 -0.026356 -0.055417      1.000000
  0.091299 -0.000000 -0.055417      1.000000
  0.136949  0.026356 -0.055417      1.000000
 -0.091299 -0.105423 -0.055417      1.000000
 -0.045650 -0.079067 -0.055417      1.000000
  0.000000  0.000000 -0.027709      1.000000
  0.045650  0.026356 -0.027709      1.000000
  0.091299  0.052712 -0.027709      1.000000
  0.136949  0.079067 -0.027709      1.000000
 -0.091299 -0.052712 -0.027709      1.000000
 -0.045650 -0.026356 -0.027709      1.000000
  0.000000  0.052712 -0.027709      1.000000
  0.045650  0.079067 -0.027709      1.000000
  0.091299  0.105423 -0.027709      1.000000
  0.136949  0.131779 -0.027709      1.000000
 -0.091299  0.000000 -0.027709      1.000000
 -0.045650  0.026356 -0.027709      1.000000
  0.000000  0.105423 -0.027709      1.000000
  0.045650  0.131779 -0.027709      1.000000
  0.091299  0.158135 -0.027709      1.000000
  0.136949  0.184491 -0.027709      1.000000
 -0.091299  0.052712 -0.027709      1.000000
 -0.045650  0.079067 -0.027709      1.000000
  0.000000  0.158135 -0.027709      1.000000
  0.045650  0.184491 -0.027709      1.000000
  0.091299  0.210846 -0.027709      1.000000
  0.136949  0.237202 -0.027709      1.000000
 -0.091299  0.105423 -0.027709      1.000000
 -0.045650  0.131779 -0.027709      1.000000
  0.000000 -0.105423 -0.027709      1.000000
  0.045650 -0.079067 -0.027709      1.000000
  0.091299 -0.052712 -0.027709      1.000000
  0.136949 -0.026356 -0.027709      1.000000
 -0.091299 -0.158135 -0.027709      1.000000
 -0.045650 -0.131779 -0.027709      1.000000
  0.000000 -0.052712 -0.027709      1.000000
  0.045650 -0.026356 -0.027709      1.000000
  0.091299 -0.000000 -0.027709      1.000000
  0.136949  0.026356 -0.027709      1.000000
 -0.091299 -0.105423 -0.027709      1.000000
 -0.045650 -0.079067 -0.027709      1.000000
 
 TETIRR: Found   1296 inequivalent tetrahedra from     1296
 files read and symmetry switched off, memory is now:
 total amount of memory used by VASP on root node   189960. kBytes
========================================================================

   base      :      30000. kBytes
   nonl-proj :      80434. kBytes
   fftplans  :       1680. kBytes
   grid      :       3557. kBytes
   one-center:         46. kBytes
   HF        :        259. kBytes
   nonlr-proj:        551. kBytes
   wavefun   :      73433. kBytes
 
 Basis sets for responsefunctions:
 =================================
 k-point  1 :   0.0000 0.0000 0.0000  plane waves:     701
 k-point  2 :   0.1667-0.0000 0.0000  plane waves:     677
 k-point  3 :   0.3333 0.0000 0.0000  plane waves:     686
 k-point  4 :   0.5000-0.0000 0.0000  plane waves:     684
 k-point  5 :   0.1667 0.1667 0.0000  plane waves:     685
 k-point  6 :   0.3333 0.1667 0.0000  plane waves:     685
 k-point  7 :   0.3333 0.3333 0.0000  plane waves:     699
 k-point  8 :   0.0000 0.0000 0.1667  plane waves:     682
 k-point  9 :   0.1667-0.0000 0.1667  plane waves:     684
 k-point 10 :   0.3333 0.0000 0.1667  plane waves:     688
 k-point 11 :   0.5000-0.0000 0.1667  plane waves:     692
 k-point 12 :  -0.3333-0.0000 0.1667  plane waves:     688
 k-point 13 :  -0.1667 0.0000 0.1667  plane waves:     684
 k-point 14 :   0.1667 0.1667 0.1667  plane waves:     679
 k-point 15 :   0.3333 0.1667 0.1667  plane waves:     688
 k-point 16 :   0.5000 0.1667 0.1667  plane waves:     688
 k-point 17 :   0.3333 0.3333 0.1667  plane waves:     708
 k-point 18 :   0.0000 0.0000 0.3333  plane waves:     670
 k-point 19 :   0.1667-0.0000 0.3333  plane waves:     678
 k-point 20 :   0.3333 0.0000 0.3333  plane waves:     685
 k-point 21 :   0.5000-0.0000 0.3333  plane waves:     694
 k-point 22 :  -0.3333-0.0000 0.3333  plane waves:     685
 k-point 23 :  -0.1667 0.0000 0.3333  plane waves:     678
 k-point 24 :   0.1667 0.1667 0.3333  plane waves:     684
 k-point 25 :   0.3333 0.1667 0.3333  plane waves:     691
 k-point 26 :   0.5000 0.1667 0.3333  plane waves:     691
 k-point 27 :   0.3333 0.3333 0.3333  plane waves:     696
 k-point 28 :   0.0000 0.0000 0.5000  plane waves:     676
 k-point 29 :   0.1667-0.0000 0.5000  plane waves:     674
 k-point 30 :   0.3333 0.0000 0.5000  plane waves:     694
 k-point 31 :   0.5000-0.0000 0.5000  plane waves:     692
 k-point 32 :   0.1667 0.1667 0.5000  plane waves:     684
 k-point 33 :   0.3333 0.1667 0.5000  plane waves:     696
 k-point 34 :   0.3333 0.3333 0.5000  plane waves:     690
 k-point 35 :  -0.3333-0.0000 0.0000  plane waves:     686
 k-point 36 :  -0.1667 0.0000 0.0000  plane waves:     677
 k-point 37 :   0.0000 0.1667 0.0000  plane waves:     677
 k-point 38 :  -0.5000 0.1667 0.0000  plane waves:     685
 k-point 39 :  -0.3333 0.1667 0.0000  plane waves:     685
 k-point 40 :  -0.1667 0.1667 0.0000  plane waves:     677
 k-point 41 :  -0.0000 0.3333 0.0000  plane waves:     686
 k-point 42 :   0.1667 0.3333 0.0000  plane waves:     685
 k-point 43 :  -0.5000 0.3333 0.0000  plane waves:     685
 k-point 44 :  -0.3333 0.3333 0.0000  plane waves:     686
 k-point 45 :  -0.1667 0.3333 0.0000  plane waves:     685
 k-point 46 :  -0.0000-0.5000 0.0000  plane waves:     684
 k-point 47 :   0.1667-0.5000 0.0000  plane waves:     685
 k-point 48 :   0.3333-0.5000 0.0000  plane waves:     685
 k-point 49 :  -0.5000 0.5000 0.0000  plane waves:     684
 k-point 50 :  -0.3333 0.5000 0.0000  plane waves:     685
 k-point 51 :  -0.1667 0.5000 0.0000  plane waves:     685
 k-point 52 :   0.0000-0.3333 0.0000  plane waves:     686
 k-point 53 :   0.1667-0.3333 0.0000  plane waves:     685
 k-point 54 :   0.3333-0.3333 0.0000  plane waves:     686
 k-point 55 :   0.5000-0.3333 0.0000  plane waves:     685
 k-point 56 :  -0.3333-0.3333 0.0000  plane waves:     699
 k-point 57 :  -0.1667-0.3333 0.0000  plane waves:     685
 k-point 58 :  -0.0000-0.1667 0.0000  plane waves:     677
 k-point 59 :   0.1667-0.1667 0.0000  plane waves:     677
 k-point 60 :   0.3333-0.1667 0.0000  plane waves:     685
 k-point 61 :   0.5000-0.1667 0.0000  plane waves:     685
 k-point 62 :  -0.3333-0.1667 0.0000  plane waves:     685
 k-point 63 :  -0.1667-0.1667 0.0000  plane waves:     685
 k-point 64 :   0.0000 0.1667 0.1667  plane waves:     684
 k-point 65 :  -0.3333 0.1667 0.1667  plane waves:     679
 k-point 66 :  -0.1667 0.1667 0.1667  plane waves:     684
 k-point 67 :  -0.0000 0.3333 0.1667  plane waves:     688
 k-point 68 :   0.1667-0.6667 0.1667  plane waves:     688
 k-point 69 :  -0.5000 0.3333 0.1667  plane waves:     688
 k-point 70 :  -0.3333 0.3333 0.1667  plane waves:     688
 k-point 71 :  -0.1667 0.3333 0.1667  plane waves:     679
 k-point 72 :  -0.0000-0.5000 0.1667  plane waves:     692
 k-point 73 :   0.1667-0.5000 0.1667  plane waves:     688
 k-point 74 :  -0.6667 0.5000 0.1667  plane waves:     688
 k-point 75 :  -0.5000 0.5000 0.1667  plane waves:     692
 k-point 76 :  -0.3333 0.5000 0.1667  plane waves:     688
 k-point 77 :  -0.1667-0.5000 0.1667  plane waves:     688
 k-point 78 :   0.0000-0.3333 0.1667  plane waves:     688
 k-point 79 :   0.1667-0.3333 0.1667  plane waves:     679
 k-point 80 :   0.3333-0.3333 0.1667  plane waves:     688
 k-point 81 :  -0.5000 0.6667 0.1667  plane waves:     688
 k-point 82 :  -0.3333 0.6667 0.1667  plane waves:     708
 k-point 83 :  -0.1667-0.3333 0.1667  plane waves:     688
 k-point 84 :  -0.0000-0.1667 0.1667  plane waves:     684
 k-point 85 :   0.1667-0.1667 0.1667  plane waves:     684
 k-point 86 :   0.3333-0.1667 0.1667  plane waves:     679
 k-point 87 :   0.5000-0.1667 0.1667  plane waves:     688
 k-point 88 :   0.6667-0.1667 0.1667  plane waves:     688
 k-point 89 :  -0.1667-0.1667 0.1667  plane waves:     679
 k-point 90 :   0.0000 0.1667 0.3333  plane waves:     678
 k-point 91 :  -0.3333 0.1667 0.3333  plane waves:     684
 k-point 92 :  -0.1667 0.1667 0.3333  plane waves:     678
 k-point 93 :  -0.0000 0.3333 0.3333  plane waves:     685
 k-point 94 :   0.1667-0.6667 0.3333  plane waves:     691
 k-point 95 :  -0.5000 0.3333 0.3333  plane waves:     691
 k-point 96 :  -0.3333 0.3333 0.3333  plane waves:     685
 k-point 97 :  -0.1667 0.3333 0.3333  plane waves:     684
 k-point 98 :  -0.0000-0.5000 0.3333  plane waves:     694
 k-point 99 :   0.1667-0.5000 0.3333  plane waves:     691
 k-point ** :  -0.6667 0.5000 0.3333  plane waves:     691
 k-point ** :  -0.5000 0.5000 0.3333  plane waves:     694
 k-point ** :  -0.3333 0.5000 0.3333  plane waves:     691
 k-point ** :  -0.1667-0.5000 0.3333  plane waves:     691
 k-point ** :   0.0000-0.3333 0.3333  plane waves:     685
 k-point ** :   0.1667-0.3333 0.3333  plane waves:     684
 k-point ** :   0.3333-0.3333 0.3333  plane waves:     685
 k-point ** :  -0.5000 0.6667 0.3333  plane waves:     691
 k-point ** :  -0.3333 0.6667 0.3333  plane waves:     696
[...]
     17      11.1756      12.1812     -10.8362     -12.1758      -6.6064       0.7507       0.0000      -0.2197
     18      11.3419      12.0304      -9.4667     -10.3603      -5.4616       0.7704       0.0000      -0.1462
     19      14.5238      15.0964      -9.5044     -10.2538      -4.7825       0.7641       0.0000      -0.3023
     20      14.9159      15.5944      -9.3582     -10.2455      -4.6248       0.7646       0.0000      -0.3129
     21      15.6355      16.4980      -9.5018     -10.6235      -4.8605       0.7689       0.0000      -0.3295
     22      15.8351      16.4673      -8.7739      -9.6006      -3.8445       0.7647       0.0000      -0.3931
     23      16.7406      17.3602      -8.8354      -9.6468      -3.9060       0.7635       0.0000      -0.4221
     24      17.4718      18.2872      -9.6695     -10.7402      -4.6943       0.7616       0.0000      -0.5198
     25      17.8901      18.8206      -9.8303     -11.0403      -4.7112       0.7690       0.0000      -0.5800
     26      20.5945      21.4208      -9.1582     -10.2313      -3.6467       0.7700       0.0000      -0.7876
     27      21.0411      21.9889      -9.8225     -11.0488      -4.1987       0.7729       0.0000      -0.9436
     28      22.3563      23.2899      -8.8879     -10.0771      -3.3184       0.7851       0.0000      -0.9343
     29      23.2854      24.5514     -10.3383     -11.9700      -4.2775       0.7759       0.0000      -1.2974
     30      23.7290      24.6226      -8.6274      -9.7841      -2.8680       0.7725       0.0000      -0.9757
     31      24.5853      25.5549      -9.4030     -10.6322      -3.3924       0.7888       0.0000      -1.2733
     32      24.6962      25.7852      -9.2564     -10.6303      -3.3382       0.7927       0.0000      -1.2062

 k-point  31 :       0.5000   -0.0000    0.5000
  band No.  KS-energies  QP-energies   sigma(KS)   V_xc(KS)     V^pw_x(r,r')   Z            occupation

      1     -16.6145     -18.6157     -20.2050     -17.4259     -27.1484       0.7201       2.0000       0.3575
      2     -16.5063     -18.5339     -20.2767     -17.4579     -27.0300       0.7193       2.0000       0.2236
      3     -16.5041     -18.6045     -20.3881     -17.5364     -27.2218       0.7366       2.0000       0.3023
      4     -16.4374     -18.5054     -20.3474     -17.5188     -27.0862       0.7311       2.0000       0.2151
      5     -16.4335     -18.5080     -20.3643     -17.5404     -27.1049       0.7346       2.0000       0.2142
      6      -7.3177      -7.3892     -13.6311     -13.5177     -21.1387       0.6299       2.0000       1.0987
      7      -6.8194      -6.9581     -13.9660     -13.7521     -21.1976       0.6484       2.0000       1.0638
      8      -2.4981      -2.8964     -12.4560     -11.9050     -16.5701       0.7230       2.0000       0.5435
      9      -0.2892      -0.7685     -11.9881     -11.3447     -15.6707       0.7449       2.0000       0.4971
     10       2.0840       1.7881     -12.9271     -12.5180     -15.6996       0.7232       2.0000       0.1870
     11       2.5827       2.2535     -13.0300     -12.5696     -15.7845       0.7151       2.0000       0.1701
     12       3.7410       3.4020     -13.2492     -12.7813     -15.6598       0.7244       2.0000       0.1156
     13       3.8610       3.5782     -13.4664     -13.0769     -15.7062       0.7262       2.0000       0.1063
     14       5.9190       6.6707     -10.8929     -11.8704      -8.2688       0.7689       0.0000      -0.0594
     15       9.1538       9.7911      -9.5764     -10.3940      -5.9784       0.7794       0.0000      -0.0993
     16      10.0249      10.7170      -9.2159     -10.0992      -5.4857       0.7835       0.0000      -0.1440
     17      10.7900      11.3954      -9.0003      -9.7753      -5.1447       0.7812       0.0000      -0.1154
     18      11.3224      12.3282     -10.8270     -12.1697      -6.5674       0.7491       0.0000      -0.2263
     19      15.1248      15.6292      -8.7587      -9.4168      -3.9576       0.7665       0.0000      -0.3373
     20      15.8567      16.3631      -8.8748      -9.5427      -3.9608       0.7583       0.0000      -0.3849
     21      16.6089      17.2676      -9.2356     -10.0957      -4.5666       0.7657       0.0000      -0.4163
     22      16.7178      17.3979      -9.8199     -10.7400      -4.3497       0.7391       0.0000      -0.5266
     23      18.0772      19.2765     -10.1732     -11.7601      -4.9538       0.7557       0.0000      -0.5318
     24      18.2264      18.8535      -9.3370     -10.1609      -3.9423       0.7611       0.0000      -0.5667
     25      19.1004      20.2889     -10.2450     -11.8055      -4.7925       0.7616       0.0000      -0.6756
     26      19.8519      20.9321     -10.6073     -12.0156      -5.0822       0.7670       0.0000      -0.8507
     27      21.4860      22.4716     -10.1090     -11.4077      -4.3929       0.7589       0.0000      -0.9629
     28      21.7343      22.7866      -9.4851     -10.8487      -3.7715       0.7717       0.0000      -0.8864
     29      22.2239      22.9070      -9.3902     -10.2585      -3.4564       0.7867       0.0000      -1.0767
     30      23.6886      24.5614      -8.7215      -9.8231      -3.2117       0.7923       0.0000      -1.0122
     31      23.9972      25.1275     -10.2206     -11.6343      -4.2133       0.7995       0.0000      -1.3174
     32      24.3631      25.2595      -9.2889     -10.4135      -3.4243       0.7970       0.0000      -1.2851

 k-point  32 :       0.1667    0.1667    0.5000
  band No.  KS-energies  QP-energies   sigma(KS)   V_xc(KS)     V^pw_x(r,r')   Z            occupation

      1     -16.5730     -18.6111     -20.2785     -17.4711     -27.1770       0.7260       2.0000       0.3344
      2     -16.5181     -18.5984     -20.3675     -17.5243     -27.2088       0.7317       2.0000       0.3036
      3     -16.4864     -18.5301     -20.3037     -17.4808     -27.0504       0.7240       2.0000       0.2200
      4     -16.4732     -18.5299     -20.3197     -17.4917     -27.0647       0.7272       2.0000       0.2196
      5     -16.4488     -18.5128     -20.3411     -17.5149     -27.0789       0.7303       2.0000       0.2137
      6      -8.2820      -8.3528     -13.0962     -12.9816     -20.7775       0.6178       2.0000       1.2085
      7      -7.0220      -7.1294     -13.7465     -13.5774     -21.2032       0.6347       2.0000       1.1333
      8      -1.2192      -1.5156     -12.9634     -12.5574     -16.6823       0.7301       2.0000       0.4304
      9       1.0973       0.7167     -12.3533     -11.8329     -15.4951       0.7312       2.0000       0.3127
     10       1.8302       1.5033     -12.6936     -12.2398     -15.6360       0.7202       2.0000       0.2308
     11       2.7624       2.4154     -12.9576     -12.4739     -15.6670       0.7173       2.0000       0.1558
     12       3.6347       3.2980     -13.1764     -12.7124     -15.5905       0.7257       2.0000       0.1176
     13       3.6686       3.3873     -13.2084     -12.8210     -15.4461       0.7263       2.0000       0.1110
     14       7.2251       8.1170     -11.7208     -12.9029      -8.7782       0.7545       0.0000      -0.0837
     15       9.8196      10.6214      -9.9948     -11.0257      -6.1542       0.7778       0.0000      -0.1423
     16      10.7652      11.5908     -10.1053     -11.1826      -6.0498       0.7664       0.0000      -0.1793
     17      10.8343      11.7117     -10.7453     -11.9040      -6.6308       0.7573       0.0000      -0.1711
     18      11.7386      12.3949      -9.0494      -9.8982      -4.9160       0.7733       0.0000      -0.1667
     19      13.1253      13.8134      -9.2082     -10.0946      -4.9960       0.7763       0.0000      -0.1933
     20      14.1463      14.8319      -9.0750      -9.9563      -4.6525       0.7780       0.0000      -0.2611
     21      14.4171      14.9267      -9.1101      -9.7694      -4.6015       0.7728       0.0000      -0.2794
     22      16.3652      16.9560      -8.7964      -9.5758      -3.8857       0.7580       0.0000      -0.3932
     23      16.7726      17.6471      -9.6951     -10.8425      -4.6866       0.7622       0.0000      -0.4713
     24      17.8814      18.7762      -9.5520     -10.7171      -4.4448       0.7679       0.0000      -0.5230
     25      18.6150      19.5505     -10.1205     -11.3384      -4.9077       0.7681       0.0000      -0.6741
     26      20.3474      21.2243      -8.8417      -9.9683      -3.4046       0.7783       0.0000      -0.8336
     27      20.6601      21.4799      -9.4030     -10.4569      -3.8866       0.7778       0.0000      -0.8792
     28      21.2818      22.1181      -9.0600     -10.1281      -3.4556       0.7830       0.0000      -0.8596
     29      22.4307      23.2764      -8.9797     -10.0634      -3.2367       0.7804       0.0000      -0.9897
     30      22.5052      23.3291      -8.7072      -9.7608      -3.0962       0.7819       0.0000      -0.9074
     31      24.0437      25.0360      -9.8594     -11.1274      -3.7953       0.7826       0.0000      -1.3197
     32      24.8781      26.0807      -9.9757     -11.5273      -3.9309       0.7751       0.0000      -1.3400

 k-point  33 :       0.3333    0.1667    0.5000
  band No.  KS-energies  QP-energies   sigma(KS)   V_xc(KS)     V^pw_x(r,r')   Z            occupation

      1     -16.5926     -18.6099     -20.2397     -17.4496     -27.1694       0.7230       2.0000       0.3501
      2     -16.5209     -18.5918     -20.3601     -17.5214     -27.2161       0.7295       2.0000       0.3125
      3     -16.4931     -18.5334     -20.2915     -17.4706     -27.0386       0.7233       2.0000       0.2200
      4     -16.4539     -18.5125     -20.3336     -17.5096     -27.0731       0.7289       2.0000       0.2143
      5     -16.4362     -18.5118     -20.3530     -17.5260     -27.0924       0.7342       2.0000       0.2150
      6      -7.4013      -7.4944     -13.5829     -13.4356     -21.0342       0.6322       2.0000       1.0988
      7      -6.7414      -6.8615     -14.0170     -13.8314     -21.3175       0.6471       2.0000       1.0688
      8      -2.3034      -2.6642     -12.5284     -12.0319     -16.5100       0.7267       2.0000       0.4964
      9       0.0867      -0.3680     -12.0818     -11.4714     -15.6314       0.7448       2.0000       0.4486
     10       1.1920       0.8365     -12.4039     -11.9155     -15.5225       0.7278       2.0000       0.2956
     11       2.0139       1.6603     -12.7098     -12.2170     -15.6066       0.7173       2.0000       0.2084
     12       3.7608       3.4647     -13.3490     -12.9410     -15.6443       0.7257       2.0000       0.1103
     13       3.9763       3.6508     -13.4842     -13.0363     -15.8394       0.7269       2.0000       0.1069
     14       6.8838       7.7401     -11.4413     -12.5760      -8.5327       0.7546       0.0000      -0.0784
     15       9.7092      10.3831      -9.5740     -10.4411      -5.8777       0.7772       0.0000      -0.1190
     16      10.4476      11.2667     -10.1354     -11.2025      -6.1971       0.7676       0.0000      -0.1582
     17      10.8469      11.6950     -10.0888     -11.1936      -6.0156       0.7676       0.0000      -0.1939
     18      11.8153      12.4976      -9.1971     -10.0801      -5.0820       0.7727       0.0000      -0.1588
     19      13.7171      14.1619      -8.2492      -8.8176      -3.9199       0.7825       0.0000      -0.2396
     20      14.6429      15.3772      -9.3840     -10.3373      -4.7233       0.7702       0.0000      -0.2885
     21      14.9820      15.6764      -9.5279     -10.4385      -4.7727       0.7626       0.0000      -0.3331
     22      16.7041      17.3373      -9.4089     -10.2546      -4.2093       0.7487       0.0000      -0.4724
     23      18.3967      19.3723      -9.8455     -11.1225      -4.6705       0.7640       0.0000      -0.5731
     24      18.6850      19.5991      -9.8286     -11.0340      -4.3643       0.7583       0.0000      -0.6841
     25      20.0195      21.0091     -10.0544     -11.3512      -4.4824       0.7631       0.0000      -0.7789
     26      20.4972      21.3748      -9.9298     -11.0653      -4.2337       0.7729       0.0000      -0.8947
     27      21.1738      22.0562      -9.2929     -10.4458      -3.7337       0.7654       0.0000      -0.8425
     28      21.9619      23.0030     -10.1075     -11.4375      -4.2942       0.7827       0.0000      -1.0887
     29      22.6698      23.5846      -9.1957     -10.3652      -3.5627       0.7822       0.0000      -0.9718
     30      23.8956      24.8433      -9.2456     -10.4480      -3.5264       0.7882       0.0000      -1.1545
     31      24.4266      25.5683     -10.0506     -11.5097      -4.0512       0.7825       0.0000      -1.3715
     32      24.9996      26.0750      -9.2649     -10.6323      -3.3810       0.7865       0.0000      -1.2037

 k-point  34 :       0.3333    0.3333    0.5000
  band No.  KS-energies  QP-energies   sigma(KS)   V_xc(KS)     V^pw_x(r,r')   Z            occupation

      1     -16.5590     -18.5985     -20.2934     -17.4837     -27.1962       0.7259       2.0000       0.3357
      2     -16.5590     -18.5985     -20.2934     -17.4837     -27.1962       0.7259       2.0000       0.3357
      3     -16.4675     -18.5145     -20.3181     -17.4969     -27.0597       0.7256       2.0000       0.2158
      4     -16.4675     -18.5145     -20.3181     -17.4969     -27.0597       0.7256       2.0000       0.2158
      5     -16.4437     -18.5087     -20.3407     -17.5120     -27.0788       0.7300       2.0000       0.2150
      6      -6.8350      -6.9416     -13.9791     -13.8129     -21.3051       0.6410       2.0000       1.0564
      7      -6.8350      -6.9416     -13.9791     -13.8129     -21.3051       0.6410       2.0000       1.0564
      8      -2.5981      -2.9601     -12.3459     -11.8487     -16.2737       0.7280       2.0000       0.4846
      9       0.4579       0.0310     -12.1670     -11.5897     -15.6372       0.7397       2.0000       0.4132
     10       0.4579       0.0310     -12.1670     -11.5897     -15.6372       0.7397       2.0000       0.4132
     11       0.9392       0.5320     -12.2637     -11.7013     -15.4830       0.7241       2.0000       0.3077
     12       4.0260       3.7225     -13.5672     -13.1506     -15.8675       0.7283       2.0000       0.1037
     13       4.0260       3.7225     -13.5672     -13.1506     -15.8675       0.7283       2.0000       0.1037
     14       7.4331       8.3765     -11.7956     -13.0623      -8.6291       0.7447       0.0000      -0.1017
     15       9.8489      10.5613      -9.6158     -10.5334      -5.8959       0.7764       0.0000      -0.1256
     16       9.8489      10.5613      -9.6158     -10.5334      -5.8959       0.7764       0.0000      -0.1256
     17      11.5797      12.4419     -10.0987     -11.2403      -5.7868       0.7553       0.0000      -0.2348
     18      13.1122      13.5061      -8.3671      -8.8751      -4.0452       0.7754       0.0000      -0.2153
     19      13.9721      14.7747      -9.2684     -10.2964      -4.7831       0.7808       0.0000      -0.2554
     20      14.0787      14.7807      -9.4462     -10.3569      -4.9023       0.7708       0.0000      -0.2582
     21      14.0787      14.7807      -9.4462     -10.3569      -4.9023       0.7708       0.0000      -0.2582
     22      16.2696      17.0671      -9.5353     -10.5897      -4.4801       0.7563       0.0000      -0.4194
     23      16.2696      17.0671      -9.5353     -10.5897      -4.4801       0.7563       0.0000      -0.4194
     24      20.2377      21.0083      -9.4978     -10.5097      -3.9213       0.7615       0.0000      -0.8078
     25      20.2377      21.0083      -9.4978     -10.5097      -3.9213       0.7615       0.0000      -0.8078
     26      22.1455      23.1756     -10.0381     -11.3494      -4.3987       0.7856       0.0000      -1.0538
     27      22.1455      23.1756     -10.0381     -11.3494      -4.3987       0.7856       0.0000      -1.0538
     28      22.9948      24.1841     -10.4256     -11.9696      -4.3197       0.7702       0.0000      -1.2338
     29      23.1306      24.2680      -9.0770     -10.5370      -3.2748       0.7790       0.0000      -1.0764
     30      23.8980      25.1406     -10.9424     -12.5576      -4.7661       0.7694       0.0000      -1.3550
     31      24.3138      25.1541      -8.9723     -10.0276      -3.4035       0.7962       0.0000      -1.0992
     32      24.8274      25.9308      -9.7069     -11.1192      -3.6087       0.7813       0.0000      -1.3073


--------------------------------------------------------------------------------------------------------


  QP_SHIFT:  cpu time    1.9280: real time    1.9314
 BZINTS: Fermi energy:  4.186245; 26.000000 electrons
         Band energy:-197.788028;  BLOECHL correction:  0.000000
    GWLOOP:  cpu time  981.6920: real time  982.8966
  LATTYP: Found a hexagonal cell.
 ALAT       =     3.6510002172
 C/A-ratio  =     1.6474937393
  
  Lattice vectors:
  
 A1 = (   3.6510000000,   0.0000000000,   0.0000000000)
 A2 = (  -1.8255000000,   3.1618590000,   0.0000000000)
 A3 = (   0.0000000000,   0.0000000000,   6.0150000000)


Analysis of symmetry for initial positions (statically):
=====================================================================
 Subroutine PRICEL returns:
 Original cell was already a primitive cell.
 

 Routine SETGRP: Setting up the symmetry group for a 
 hexagonal supercell.


 Subroutine GETGRP returns: Found 12 space group operations
 (whereof 12 operations were pure point group operations)
 out of a pool of 24 trial point group operations.


The static configuration has the point symmetry D_3d.


Analysis of symmetry for dynamics (positions and initial velocities):
=====================================================================
 Subroutine PRICEL returns:
 Original cell was already a primitive cell.
 

 Routine SETGRP: Setting up the symmetry group for a 
 hexagonal supercell.


 Subroutine GETGRP returns: Found 12 space group operations
 (whereof 12 operations were pure point group operations)
 out of a pool of 24 trial point group operations.


The dynamic configuration has the point symmetry D_3d.


 Subroutine INISYM returns: Found 12 space group operations
 (whereof 12 operations are pure point group operations),
 and found     1 'primitive' translations

 writing wavefunctions
   RESPFUN:  cpu time  108.5640: real time  109.1505
    4ORBIT:  cpu time    0.0000: real time    0.0000
 BZINTS: Fermi energy:  4.186245; 26.000000 electrons
         Band energy:-197.788028;  BLOECHL correction:  0.000000

 total amount of memory used by VASP on root node    60364. kBytes
========================================================================

   base      :      30000. kBytes
   nonl-proj :      12713. kBytes
   fftplans  :       1680. kBytes
   grid      :       3557. kBytes
   one-center:         46. kBytes
   HF        :        259. kBytes
   nonlr-proj:        551. kBytes
   wavefun   :      11558. kBytes
   2eintegral:          0. kBytes
   response  :          0. kBytes
 
  
  
 General timing and accounting informations for this job:
 ========================================================
  
                  Total CPU time used (sec):     1092.076
                            User time (sec):     1074.004
                          System time (sec):       18.072
                         Elapsed time (sec):     1093.884
  
                   Maximum memory used (kb):      763384.
                   Average memory used (kb):           0.
  
                          Minor page faults:      1166531
                          Major page faults:            0
                 Voluntary context switches:           52
