 
             +---------------------------------------------------+
             |                                                   |
             |                   WANNIER90                       |
             |                                                   |
             +---------------------------------------------------+
             |                                                   |
             |        Welcome to the Maximally-Localized         |
             |        Generalized Wannier Functions code         |
             |            http://www.wannier.org                 |
             |                                                   |
             |  Wannier90 Authors:                               |
             |    Arash A. Mostofi   (Imperial College London)   |
             |    Jonathan R. Yates  (University of Oxford)      |
             |    Young-Su Lee       (KIST, S. Korea)            |
             |                                                   |
             |  Wannier90 Contributors:                          |
             |    Matthew Shelley    (Imperial College London)   |
             |    Nicolas Poilvert   (MIT)                       |
             |                                                   |
             |  Wannier77 Authors:                               |
             |    Nicola Marzari     (University of Oxford)      |
             |    Ivo Souza          (UC Berkeley)               |
             |    David Vanderbilt   (Rutgers University)        |
             |                                                   |
             |  Please cite                                      |
             |                                                   |
             |  [ref] "Wannier90: A Tool for Obtaining Maximally |
             |         Localised Wannier Functions"              |
             |        A. A. Mostofi, J. R. Yates, Y.-S. Lee,     |
             |        I. Souza, D. Vanderbilt and N. Marzari     |
             |        Comput. Phys. Commun. 178, 685 (2008)      |
             |                                                   |
             |  in any publications arising from the use of      |
             |  this code. For the method please cite            |
             |                                                   |
             |  [ref] "Maximally Localized Generalised Wannier   |
             |         Functions for Composite Energy Bands"     |
             |         N. Marzari and D. Vanderbilt              |
             |         Phys. Rev. B 56 12847 (1997)              |
             |                                                   |
             |  [ref] "Maximally Localized Wannier Functions     |
             |         for Entangled Energy Bands"               |
             |         I. Souza, N. Marzari and D. Vanderbilt    |
             |         Phys. Rev. B 65 035109 (2001)             |
             |                                                   |
             |                                                   |
             | Copyright (c) 1996-2010                           |
             |        A. A. Mostofi, J. R. Yates, Y.-S. Lee,     |
             |        I. Souza, D. Vanderbilt and N. Marzari     |
             |                                                   |
             |        Release: 1.2        24th Jan 2010          |
             |                                                   |
             | This program is free software; you can            |
             | redistribute it and/or modify it under the terms  |
             | of the GNU General Public License as published by |
             | the Free Software Foundation; either version 2 of |
             | the License, or (at your option) any later version|
             |                                                   |
             | This program is distributed in the hope that it   |
             | will be useful, but WITHOUT ANY WARRANTY; without |
             | even the implied warranty of MERCHANTABILITY or   |
             | FITNESS FOR A PARTICULAR PURPOSE. See the GNU     |
             | General Public License for more details.          |
             |                                                   |
             | You should have received a copy of the GNU General|
             | Public License along with this program; if not,   |
             | write to the Free Software Foundation, Inc.,      |
             | 675 Mass Ave, Cambridge, MA 02139, USA.           |
             |                                                   |
             +---------------------------------------------------+
             |    Execution started on 30Oct2016 at 18:43:36     |
             +---------------------------------------------------+
 
                                    ------
                                    SYSTEM
                                    ------
 
                              Lattice Vectors (Ang)
                    a_1     3.651000   0.000000   0.000000
                    a_2    -1.825500   3.161859   0.000000
                    a_3     0.000000   0.000000   6.015000
 
                   Unit Cell Volume:      69.43684  (Ang^3)
 
                        Reciprocal-Space Vectors (Ang^-1)
                    b_1     1.720949   0.993590   0.000000
                    b_2     0.000000   1.987181   0.000000
                    b_3     0.000000   0.000000   1.044586
  
 *----------------------------------------------------------------------------*
 |   Site       Fractional Coordinate          Cartesian Coordinate (Ang)     |
 +----------------------------------------------------------------------------+
 | Sn   1   0.00000   0.00000   0.00000   |    0.00000   0.00000   0.00000    |
 | S    1   0.33333   0.66667   0.24520   |    0.00000   2.10790   1.47488    |
 | S    2   0.66667   0.33333   0.75480   |    1.82550   1.05395   4.54012    |
 *----------------------------------------------------------------------------*
  
                                ------------
                                K-POINT GRID
                                ------------
  
             Grid size =  6 x  6 x  6      Total points =  216
  
  
 *---------------------------------- MAIN ------------------------------------*
 |  Number of Wannier Functions               :                64             |
 |  Number of input Bloch states              :                64             |
 |  Output verbosity (1=low, 5=high)          :                 1             |
 |  Timing Level (1=low, 5=high)              :                 1             |
 |  Optimisation (0=memory, 3=speed)          :                 3             |
 |  Length Unit                               :               Ang             |
 |  Post-processing setup (write *.nnkp)      :                 F             |
 |  Using Gamma-only branch of algorithms     :                 F             |
 *----------------------------------------------------------------------------*
 *------------------------------- WANNIERISE ---------------------------------*
 |  Total number of iterations                :               100             |
 |  Number of CG steps before reset           :                 5             |
 |  Trial step length for line search         :             2.000             |
 |  Convergence tolerence                     :         0.100E-09             |
 |  Convergence window                        :                -1             |
 |  Iterations between writing output         :                 1             |
 |  Iterations between backing up to disk     :               100             |
 |  Write r^2_nm to file                      :                 F             |
 |  Write xyz WF centres to file              :                 F             |
 |  Use guiding centre to control phases      :                 F             |
 *----------------------------------------------------------------------------*
 *-------------------------------- PLOTTING ----------------------------------*
 |  Plotting interpolated bandstructure       :                 T             |
 |   Number of K-path sections                :                 7             |
 |   Divisions along first K-path section     :                51             |
 |   Output format                            :          'gnuplot             |
 |   Output mode                              :               s-k             |
 *----------------------------------------------------------------------------*
 |   K-space path sections:                                                   |
 |    From:  G    0.000  0.000  0.000     To:  A    0.000  0.000  0.500       |
 |    From:  A    0.000  0.000  0.500     To:  H    0.333  0.333  0.500       |
 |    From:  H    0.333  0.333  0.500     To:  K    0.333  0.333  0.000       |
 |    From:  K    0.333  0.333  0.000     To:  G    0.000  0.000  0.000       |
 |    From:  G    0.000  0.000  0.000     To:  M    0.500  0.000  0.000       |
 |    From:  M    0.500  0.000  0.000     To:  L    0.500  0.000  0.500       |
 |    From:  L    0.500  0.000  0.500     To:  H    0.333  0.333  0.500       |
 *----------------------------------------------------------------------------*
 Time to read parameters        0.028 (sec)

 *---------------------------------- K-MESH ----------------------------------*
 +----------------------------------------------------------------------------+
 |                    Distance to Nearest-Neighbour Shells                    |
 |                    ------------------------------------                    |
 |          Shell             Distance (Ang^-1)          Multiplicity         |
 |          -----             -----------------          ------------         |
 |             1                   0.174098                      2            |
 |             2                   0.331197                      6            |
 |             3                   0.348195                      2            |
 |             4                   0.374168                     12            |
 |             5                   0.480553                     12            |
 |             6                   0.522293                      2            |
 |             7                   0.573650                      6            |
 |             8                   0.599486                     12            |
 |             9                   0.618451                     12            |
 |            10                   0.662394                      6            |
 |            11                   0.671054                     12            |
 |            12                   0.684891                     12            |
 +----------------------------------------------------------------------------+
 | The b-vectors are chosen automatically                                     |
 | The following shells are used:   1,  2                                     |
 +----------------------------------------------------------------------------+
 |                        Shell   # Nearest-Neighbours                        |
 |                        -----   --------------------                        |
 |                          1               2                                 |
 |                          2               6                                 |
 +----------------------------------------------------------------------------+
 | Completeness relation is fully satisfied [Eq. (B1), PRB 56, 12847 (1997)]  |
 +----------------------------------------------------------------------------+
 |                  b_k Vectors (Ang^-1) and Weights (Ang^2)                  |
 |                  ----------------------------------------                  |
 |            No.         b_k(x)      b_k(y)      b_k(z)        w_b           |
 |            ---        --------------------------------     --------        |
 |             1         0.000000    0.000000    0.174098    16.496204        |
 |             2         0.000000    0.000000   -0.174098    16.496204        |
 |             3         0.286825    0.165598    0.000000     3.038830        |
 |             4        -0.286825   -0.165598    0.000000     3.038830        |
 |             5        -0.286825    0.165598    0.000000     3.038830        |
 |             6         0.286825   -0.165598    0.000000     3.038830        |
 |             7         0.000000   -0.331197    0.000000     3.038830        |
 |             8         0.000000    0.331197    0.000000     3.038830        |
 +----------------------------------------------------------------------------+
 |                           b_k Directions (Ang^-1)                          |
 |                           -----------------------                          |
 |            No.           x           y           z                         |
 |            ---        --------------------------------                     |
 |             1         0.000000    0.000000    0.174098                     |
 |             2         0.286825    0.165598    0.000000                     |
 |             3        -0.286825    0.165598    0.000000                     |
 |             4         0.000000   -0.331197    0.000000                     |
 +----------------------------------------------------------------------------+
  
 *============================================================================*
 |                              MEMORY ESTIMATE                               |
 |         Maximum RAM allocated during each phase of the calculation         |
 *============================================================================*
 |                            Wannierise:          274.75 Mb                  |
 *----------------------------------------------------------------------------*
  
 Starting a new Wannier90 calculation ...

 Time to get kmesh              0.084 (sec)

 Reading overlaps from wannier90.mmn    : File generated by VASP: SnS2

 Reading projections from wannier90.amn : File generated by VASP: SnS2

 Time to read overlaps         21.224 (sec)

 Writing checkpoint file wannier90.chk... done

 
 *------------------------------- WANNIERISE ---------------------------------*
 +--------------------------------------------------------------------+<-- CONV
 | Iter  Delta Spread     RMS Gradient      Spread (Ang^2)      Time  |<-- CONV
 +--------------------------------------------------------------------+<-- CONV
 
 ------------------------------------------------------------------------------
 Initial State
  WF centre and spread    1  (  1.608489,  0.459490,  4.499695 )     2.95636290
  WF centre and spread    2  (  2.006618,  0.105558,  0.881663 )     3.74989326
  WF centre and spread    3  ( -1.206613,  2.578952,  0.984807 )     6.46431497
  WF centre and spread    4  (  2.087968,  0.426585,  5.955281 )     5.87480638
  WF centre and spread    5  (  1.417506,  1.817844,  4.485961 )     7.32564732
  WF centre and spread    6  (  0.683120,  0.742832,  1.909486 )     8.50219286
  WF centre and spread    7  (  0.231458,  2.074201,  0.694584 )     5.05804585
  WF centre and spread    8  (  0.183519,  2.006176,  2.116728 )     2.07680219
  WF centre and spread    9  (  0.674188,  1.086773,  5.137081 )     6.08768303
  WF centre and spread   10  ( -0.305739,  1.083638,  0.740920 )     3.21692405
  WF centre and spread   11  (  1.861684,  1.597489,  1.818773 )    19.24280426
  WF centre and spread   12  (  0.138500,  2.556144,  1.153836 )     4.44858986
  WF centre and spread   13  (  1.958970,  1.525131,  3.202952 )    20.36900579
  WF centre and spread   14  (  1.986503,  2.349498,  5.700722 )     2.46994603
  WF centre and spread   15  ( -0.740720,  2.863053,  0.407933 )     3.96141866
  WF centre and spread   16  (  0.477795,  2.389400,  4.662258 )     7.66877848
  WF centre and spread   17  (  0.224831,  1.548988,  1.459040 )    13.91949783
  WF centre and spread   18  ( -0.320103,  1.428458,  4.359981 )     8.99731445
  WF centre and spread   19  (  1.373506,  2.633968,  3.674860 )     7.43620308
  WF centre and spread   20  (  2.893841,  0.831559,  5.790256 )     3.84540464
  WF centre and spread   21  (  0.791475,  0.588369,  5.666986 )     7.81323932
  WF centre and spread   22  (  0.613323,  0.868966,  3.080654 )    12.40729144
  WF centre and spread   23  (  2.117610, -0.248605,  2.208343 )     6.18151212
  WF centre and spread   24  ( -1.589850,  2.838867,  4.677222 )     5.20147722
  WF centre and spread   25  (  1.579358,  2.224468,  2.344506 )     9.19714874
  WF centre and spread   26  (  0.085553,  0.051993,  1.340184 )     4.74887988
  WF centre and spread   27  ( -0.926269,  2.088626,  0.286350 )     5.51286997
  WF centre and spread   28  (  1.983443,  2.050730,  5.860335 )    14.02287308
  WF centre and spread   29  (  1.640361,  3.161127,  2.422220 )    10.66235070
  WF centre and spread   30  (  1.120332,  1.553389,  3.122688 )    14.44465692
  WF centre and spread   31  (  2.403261,  1.451764,  1.109056 )     5.99527042
  WF centre and spread   32  (  0.973169,  2.511799,  0.259251 )     2.43996490
  WF centre and spread   33  (  2.100207,  0.436579,  1.749713 )    13.45480045
  WF centre and spread   34  (  0.501712,  0.481020,  4.062121 )     6.47907479
  WF centre and spread   35  (  2.834705,  0.121891,  1.717400 )     7.94734654
  WF centre and spread   36  (  0.478918,  0.733018,  0.792083 )     4.01273268
  WF centre and spread   37  ( -0.617441,  2.036487,  1.249954 )     4.33965510
  WF centre and spread   38  (  2.050263,  0.990424,  3.888925 )     5.49490780
  WF centre and spread   39  ( -0.024046,  0.304476,  5.928212 )     1.20005094
  WF centre and spread   40  (  1.192577,  1.516999,  0.195236 )     5.01550669
  WF centre and spread   41  ( -0.077385,  2.044464,  5.721943 )     6.68839699
  WF centre and spread   42  (  1.337068,  1.477135,  1.222113 )    10.37751482
  WF centre and spread   43  (  1.611514,  1.338947,  4.339770 )     7.97273937
  WF centre and spread   44  (  3.100536,  0.640294,  3.365641 )     6.79077240
  WF centre and spread   45  ( -0.691422,  2.195137,  4.134500 )    15.17629199
  WF centre and spread   46  (  2.796999,  1.448586,  3.364660 )    16.75591774
  WF centre and spread   47  (  0.240824,  1.719417,  3.553735 )     9.80520702
  WF centre and spread   48  (  1.821537,  0.636348,  2.560938 )    14.60125094
  WF centre and spread   49  (  0.303508,  1.026914,  5.849577 )     8.62445393
  WF centre and spread   50  ( -0.413564,  2.705596,  4.694475 )    14.33670271
  WF centre and spread   51  (  1.538187,  0.429858,  3.731482 )     8.07351490
  WF centre and spread   52  ( -0.869761,  2.962628,  5.370433 )     3.56994133
  WF centre and spread   53  (  0.627556,  2.040455,  1.540455 )     4.98123012
  WF centre and spread   54  (  1.448791,  0.632580,  5.268321 )     5.58473737
  WF centre and spread   55  (  1.972676,  2.032506,  3.970057 )    10.09552244
  WF centre and spread   56  (  1.133756,  1.429018,  4.155796 )     8.79165135
  WF centre and spread   57  ( -0.283151,  1.553442,  1.729238 )    10.54949917
  WF centre and spread   58  (  3.082866,  0.104364,  5.115747 )     2.16527158
  WF centre and spread   59  (  1.676027,  3.058326,  5.870987 )     1.66560267
  WF centre and spread   60  (  2.457361,  0.870592,  4.804144 )     1.84546002
  WF centre and spread   61  ( -0.348534,  2.580193,  3.036306 )     7.12246168
  WF centre and spread   62  ( -0.791462,  2.777015,  2.082899 )     3.86483954
  WF centre and spread   63  ( -0.916401,  1.857065,  5.044993 )     5.96750830
  WF centre and spread   64  (  2.064096,  1.342068,  5.341272 )    17.01560868
  Sum of centres and spreads ( 59.365606, 96.771070,207.467732 )   492.66534266
 
      0     0.493E+03     0.0000000000      492.6653385573      23.62  <-- CONV
        O_D=      6.5159583 O_OD=    376.1167520 O_TOT=    492.6653386 <-- SPRD
 ------------------------------------------------------------------------------
 Cycle:      1
  WF centre and spread    1  (  1.614449,  0.465732,  4.517707 )     2.48803781
  WF centre and spread    2  (  2.011641,  0.100020,  0.877034 )     3.42818676
  WF centre and spread    3  ( -1.217197,  2.572534,  0.960257 )     5.43085388
  WF centre and spread    4  (  2.122108,  0.406647,  5.944010 )     5.28422143
  WF centre and spread    5  (  1.441583,  1.795969,  4.508006 )     5.97561506
  WF centre and spread    6  (  0.640735,  0.742442,  1.862789 )     7.68261821
  WF centre and spread    7  (  0.239298,  2.082176,  0.725565 )     4.27399037
  WF centre and spread    8  (  0.172097,  2.005557,  2.093276 )     1.85866772
  WF centre and spread    9  (  0.677165,  1.066510,  5.137911 )     5.25976732
  WF centre and spread   10  ( -0.316969,  1.061134,  0.713483 )     2.91677147
  WF centre and spread   11  (  1.860294,  1.643399,  1.699554 )    16.66097822
  WF centre and spread   12  (  0.142728,  2.577157,  1.159420 )     3.63432167
  WF centre and spread   13  (  1.983109,  1.544920,  3.201147 )    17.86971629
  WF centre and spread   14  (  1.981413,  2.365765,  5.704662 )     2.20748093
  WF centre and spread   15  ( -0.759062,  2.880138,  0.388788 )     3.46065565
  WF centre and spread   16  (  0.504223,  2.388518,  4.672540 )     6.52585348
  WF centre and spread   17  (  0.232838,  1.562000,  1.375431 )    10.70255101
  WF centre and spread   18  ( -0.340994,  1.410466,  4.400744 )     7.74995399
  WF centre and spread   19  (  1.356598,  2.638385,  3.704702 )     6.79420515
  WF centre and spread   20  (  2.912116,  0.804717,  5.797454 )     3.34117606
  WF centre and spread   21  (  0.777578,  0.561287,  5.689509 )     6.30447949
  WF centre and spread   22  (  0.607379,  0.842033,  3.049863 )    11.01887494
  WF centre and spread   23  (  2.111648, -0.285896,  2.190289 )     5.32445152
  WF centre and spread   24  ( -1.604524,  2.839514,  4.732484 )     4.60229746
  WF centre and spread   25  (  1.542677,  2.214032,  2.309168 )     8.30341742
  WF centre and spread   26  (  0.079912,  0.032280,  1.304350 )     4.12676497
  WF centre and spread   27  ( -0.934079,  2.101368,  0.269573 )     4.90040949
  WF centre and spread   28  (  2.004868,  2.148941,  5.861682 )    10.48652115
  WF centre and spread   29  (  1.620045,  3.159008,  2.378984 )     9.76140163
  WF centre and spread   30  (  1.105969,  1.556790,  3.098128 )    12.69040709
  WF centre and spread   31  (  2.437452,  1.474768,  1.081354 )     5.32767233
  WF centre and spread   32  (  0.988419,  2.534617,  0.256408 )     2.16935462
  WF centre and spread   33  (  2.108084,  0.409219,  1.673725 )    11.39512225
  WF centre and spread   34  (  0.505656,  0.490087,  4.084050 )     5.85802053
  WF centre and spread   35  (  2.840816,  0.116304,  1.679732 )     6.95281745
  WF centre and spread   36  (  0.477699,  0.710427,  0.763440 )     3.55539458
  WF centre and spread   37  ( -0.605117,  2.033344,  1.251112 )     3.45153373
  WF centre and spread   38  (  2.055990,  0.986474,  3.910868 )     4.40643616
  WF centre and spread   39  ( -0.022346,  0.293790,  5.927457 )     1.07710937
  WF centre and spread   40  (  1.194326,  1.521381,  0.167024 )     4.54336904
  WF centre and spread   41  ( -0.066279,  2.054880,  5.726917 )     5.91081467
  WF centre and spread   42  (  1.329457,  1.503157,  1.178137 )     8.71919959
  WF centre and spread   43  (  1.630842,  1.314584,  4.370225 )     6.53598929
  WF centre and spread   44  (  3.084495,  0.652786,  3.388547 )     5.94035061
  WF centre and spread   45  ( -0.701413,  2.223070,  4.218653 )    12.93153163
  WF centre and spread   46  (  2.865350,  1.470546,  3.407583 )    14.25738600
  WF centre and spread   47  (  0.259325,  1.715033,  3.558918 )     8.85628972
  WF centre and spread   48  (  1.813272,  0.572384,  2.477826 )    12.69961893
  WF centre and spread   49  (  0.276837,  0.997767,  5.856875 )     7.01354428
  WF centre and spread   50  ( -0.433241,  2.730711,  4.754075 )    11.88852064
  WF centre and spread   51  (  1.564687,  0.449286,  3.795276 )     7.13992802
  WF centre and spread   52  ( -0.894821,  2.967736,  5.391598 )     3.13331077
  WF centre and spread   53  (  0.614801,  2.059251,  1.521020 )     3.84406299
  WF centre and spread   54  (  1.459723,  0.647948,  5.259885 )     4.71983206
  WF centre and spread   55  (  1.950902,  2.018092,  4.002643 )     8.45691090
  WF centre and spread   56  (  1.180441,  1.432098,  4.226105 )     7.24829590
  WF centre and spread   57  ( -0.289231,  1.578384,  1.683931 )     7.88454469
  WF centre and spread   58  (  3.087387,  0.104765,  5.128171 )     1.98202742
  WF centre and spread   59  (  1.682354,  3.059929,  5.874363 )     1.47351332
  WF centre and spread   60  (  2.454449,  0.865466,  4.794436 )     1.61777657
  WF centre and spread   61  ( -0.354120,  2.591569,  3.031040 )     6.47937043
  WF centre and spread   62  ( -0.782125,  2.755327,  2.061029 )     3.56949485
  WF centre and spread   63  ( -0.938742,  1.854398,  5.055281 )     5.41782083
  WF centre and spread   64  (  2.104040,  1.321924,  5.335751 )    13.50818005
  Sum of centres and spreads ( 59.449017, 96.795050,207.221966 )   421.02979189
 
      1    -0.716E+02     9.8983758556      421.0297878069      37.90  <-- CONV
        O_D=      7.9147670 O_OD=    303.0823925 O_TOT=    421.0297878 <-- SPRD
 Delta: O_D=  0.1398809E+01 O_OD= -0.7303436E+02 O_TOT= -0.7163555E+02 <-- DLTA
 ------------------------------------------------------------------------------
 Cycle:      2
  WF centre and spread    1  (  1.617078,  0.469137,  4.525852 )     2.26380090
  WF centre and spread    2  (  2.014790,  0.097391,  0.872478 )     3.25367298
  WF centre and spread    3  ( -1.225031,  2.571149,  0.945699 )     4.99006313
  WF centre and spread    4  (  2.145195,  0.389613,  5.940907 )     5.06616117
  WF centre and spread    5  (  1.455918,  1.779073,  4.515613 )     5.34021616
  WF centre and spread    6  (  0.614699,  0.741163,  1.841787 )     7.32947567
  WF centre and spread    7  (  0.242301,  2.085684,  0.741803 )     3.89857371
  WF centre and spread    8  (  0.165685,  2.005843,  2.079335 )     1.70298631
  WF centre and spread    9  (  0.676864,  1.053081,  5.143396 )     4.86115870
  WF centre and spread   10  ( -0.322856,  1.042602,  0.697260 )     2.77845445
  WF centre and spread   11  (  1.872018,  1.684091,  1.598560 )    15.84489861
  WF centre and spread   12  (  0.144164,  2.591783,  1.156018 )     3.25006644
  WF centre and spread   13  (  2.009670,  1.553994,  3.199618 )    17.44356483
  WF centre and spread   14  (  1.978267,  2.376332,  5.707386 )     2.04490090
  WF centre and spread   15  ( -0.772843,  2.892262,  0.380219 )     3.16691150
  WF centre and spread   16  (  0.520916,  2.382696,  4.682748 )     6.13100664
  WF centre and spread   17  (  0.239899,  1.577614,  1.345408 )     9.46658461
  WF centre and spread   18  ( -0.349838,  1.394727,  4.424271 )     7.33931138
  WF centre and spread   19  (  1.347705,  2.642219,  3.723366 )     6.61670801
  WF centre and spread   20  (  2.922844,  0.784689,  5.800802 )     3.11206327
  WF centre and spread   21  (  0.763656,  0.538340,  5.696873 )     5.45518949
  WF centre and spread   22  (  0.604243,  0.826851,  3.034881 )    10.56093839
  WF centre and spread   23  (  2.106733, -0.306982,  2.171837 )     4.90239137
  WF centre and spread   24  ( -1.612712,  2.839715,  4.768525 )     4.27266422
  WF centre and spread   25  (  1.521740,  2.200384,  2.285200 )     8.12068496
  WF centre and spread   26  (  0.077538,  0.016687,  1.282963 )     3.80370204
  WF centre and spread   27  ( -0.941723,  2.107666,  0.263461 )     4.70270753
  WF centre and spread   28  (  2.009624,  2.219289,  5.851058 )     8.90883398
  WF centre and spread   29  (  1.600395,  3.142867,  2.344738 )     9.53670689
  WF centre and spread   30  (  1.098463,  1.556421,  3.095663 )    12.04075183
  WF centre and spread   31  (  2.457428,  1.491551,  1.072346 )     5.01680722
  WF centre and spread   32  (  0.999438,  2.549418,  0.255434 )     2.00006479
  WF centre and spread   33  (  2.118756,  0.403057,  1.616100 )    10.50886894
  WF centre and spread   34  (  0.511172,  0.497105,  4.103971 )     5.57006922
  WF centre and spread   35  (  2.852998,  0.114372,  1.653714 )     6.51064503
  WF centre and spread   36  (  0.478258,  0.692347,  0.745601 )     3.30231263
  WF centre and spread   37  ( -0.597260,  2.032093,  1.249894 )     2.97409299
  WF centre and spread   38  (  2.056745,  0.981552,  3.937676 )     3.91081337
  WF centre and spread   39  ( -0.021291,  0.285864,  5.926837 )     0.99625010
  WF centre and spread   40  (  1.193971,  1.523300,  0.153943 )     4.39139520
  WF centre and spread   41  ( -0.055201,  2.060570,  5.736954 )     5.67063136
  WF centre and spread   42  (  1.324223,  1.516591,  1.154368 )     8.19087776
  WF centre and spread   43  (  1.640159,  1.298983,  4.387945 )     5.88061079
  WF centre and spread   44  (  3.071325,  0.660960,  3.394524 )     5.76309713
  WF centre and spread   45  ( -0.706240,  2.238723,  4.280081 )    12.40602745
  WF centre and spread   46  (  2.907847,  1.483272,  3.425232 )    13.57379515
  WF centre and spread   47  (  0.275826,  1.709183,  3.556322 )     8.55783378
  WF centre and spread   48  (  1.820178,  0.540166,  2.438715 )    12.21261558
  WF centre and spread   49  (  0.261293,  0.973723,  5.864590 )     6.23850094
  WF centre and spread   50  ( -0.446308,  2.733459,  4.782262 )    11.07705979
  WF centre and spread   51  (  1.584046,  0.461130,  3.834034 )     6.87460156
  WF centre and spread   52  ( -0.911122,  2.969353,  5.399607 )     2.92632436
  WF centre and spread   53  (  0.605852,  2.068423,  1.507333 )     3.34468782
  WF centre and spread   54  (  1.467007,  0.654600,  5.255815 )     4.33721626
  WF centre and spread   55  (  1.940325,  2.008008,  4.021471 )     7.88464652
  WF centre and spread   56  (  1.212221,  1.429515,  4.251423 )     6.54017899
  WF centre and spread   57  ( -0.288903,  1.601240,  1.670817 )     6.90044218
  WF centre and spread   58  (  3.090277,  0.104459,  5.136526 )     1.86298831
  WF centre and spread   59  (  1.686781,  3.060967,  5.875534 )     1.34605148
  WF centre and spread   60  (  2.451855,  0.862885,  4.787825 )     1.50848925
  WF centre and spread   61  ( -0.356534,  2.598169,  3.030952 )     6.32976818
  WF centre and spread   62  ( -0.772854,  2.739047,  2.046298 )     3.40417672
  WF centre and spread   63  ( -0.948145,  1.853556,  5.065389 )     5.21105577
  WF centre and spread   64  (  2.127168,  1.306419,  5.324332 )    11.46008440
  Sum of centres and spreads ( 59.556690, 96.760439,207.061592 )   392.88823107
 
      2    -0.281E+02    11.0607422550      392.8882270235      51.73  <-- CONV
        O_D=      4.5201848 O_OD=    278.3354139 O_TOT=    392.8882270 <-- SPRD
 Delta: O_D= -0.3394582E+01 O_OD= -0.2474698E+02 O_TOT= -0.2814156E+02 <-- DLTA
 ------------------------------------------------------------------------------
 Cycle:      3
  WF centre and spread    1  (  1.618176,  0.469964,  4.533007 )     2.03654489
  WF centre and spread    2  (  2.017571,  0.096274,  0.867327 )     3.04379714
  WF centre and spread    3  ( -1.232119,  2.573099,  0.930452 )     4.41224851
  WF centre and spread    4  (  2.163301,  0.375835,  5.936409 )     4.70027760
  WF centre and spread    5  (  1.469978,  1.761964,  4.524262 )     4.67066985
  WF centre and spread    6  (  0.596329,  0.740143,  1.827907 )     6.87621089
  WF centre and spread    7  (  0.243924,  2.088874,  0.752076 )     3.46421341
  WF centre and spread    8  (  0.161212,  2.006388,  2.068992 )     1.57634067
  WF centre and spread    9  (  0.671316,  1.042260,  5.147717 )     4.39005315
  WF centre and spread   10  ( -0.326661,  1.024636,  0.684944 )     2.62841382
  WF centre and spread   11  (  1.890406,  1.726407,  1.534015 )    14.37397453
  WF centre and spread   12  (  0.145799,  2.605300,  1.151016 )     2.84892883
  WF centre and spread   13  (  2.029066,  1.564193,  3.256888 )    16.06102480
  WF centre and spread   14  (  1.975845,  2.385011,  5.711141 )     1.91277862
  WF centre and spread   15  ( -0.787711,  2.902028,  0.374333 )     2.83180170
  WF centre and spread   16  (  0.536717,  2.375003,  4.691637 )     5.60900465
  WF centre and spread   17  (  0.241173,  1.587116,  1.322290 )     7.81284179
  WF centre and spread   18  ( -0.358345,  1.378861,  4.450339 )     6.64526977
  WF centre and spread   19  (  1.341080,  2.644149,  3.739021 )     6.20763365
  WF centre and spread   20  (  2.930486,  0.767560,  5.803575 )     2.87928507
  WF centre and spread   21  (  0.747844,  0.517175,  5.708133 )     4.65765705
  WF centre and spread   22  (  0.603559,  0.814422,  3.031668 )     9.76272692
  WF centre and spread   23  (  2.101912, -0.322069,  2.154758 )     4.42078771
  WF centre and spread   24  ( -1.619492,  2.840338,  4.795715 )     3.93502482
  WF centre and spread   25  (  1.504270,  2.186906,  2.263022 )     7.62288253
  WF centre and spread   26  (  0.075756,  0.002584,  1.265979 )     3.46908050
  WF centre and spread   27  ( -0.950227,  2.111134,  0.259341 )     4.39144455
  WF centre and spread   28  (  2.013529,  2.288508,  5.851830 )     6.95643036
  WF centre and spread   29  (  1.582433,  3.123293,  2.304763 )     8.94373754
  WF centre and spread   30  (  1.089867,  1.555340,  3.109873 )    11.03843386
  WF centre and spread   31  (  2.470991,  1.504525,  1.065521 )     4.66704862
  WF centre and spread   32  (  1.009432,  2.562419,  0.254160 )     1.83720236
  WF centre and spread   33  (  2.129874,  0.400660,  1.554884 )     9.15759015
  WF centre and spread   34  (  0.516740,  0.504045,  4.120543 )     5.20055662
  WF centre and spread   35  (  2.866333,  0.115737,  1.630089 )     5.95500723
  WF centre and spread   36  (  0.479104,  0.674986,  0.730290 )     3.03324786
  WF centre and spread   37  ( -0.592257,  2.031979,  1.247049 )     2.53944010
  WF centre and spread   38  (  2.057560,  0.976231,  3.960535 )     3.39601054
  WF centre and spread   39  ( -0.020527,  0.278229,  5.926766 )     0.92942873
  WF centre and spread   40  (  1.192323,  1.525088,  0.144656 )     4.18369081
  WF centre and spread   41  ( -0.043852,  2.066879,  5.747405 )     5.28229363
  WF centre and spread   42  (  1.318241,  1.530904,  1.135950 )     7.29528943
  WF centre and spread   43  (  1.647143,  1.284766,  4.407164 )     5.12307241
  WF centre and spread   44  (  3.060551,  0.665752,  3.399413 )     5.34930613
  WF centre and spread   45  ( -0.710130,  2.253884,  4.349441 )    11.23478787
  WF centre and spread   46  (  2.935183,  1.492188,  3.450927 )    12.43427972
  WF centre and spread   47  (  0.292797,  1.703584,  3.555845 )     8.01258739
  WF centre and spread   48  (  1.837290,  0.515410,  2.400332 )    11.10956229
  WF centre and spread   49  (  0.248766,  0.952676,  5.871729 )     5.37663278
  WF centre and spread   50  ( -0.456624,  2.731379,  4.809638 )     9.80864769
  WF centre and spread   51  (  1.602247,  0.468832,  3.868001 )     6.37837279
  WF centre and spread   52  ( -0.925179,  2.970456,  5.405707 )     2.72314373
  WF centre and spread   53  (  0.598443,  2.076073,  1.496809 )     2.80710523
  WF centre and spread   54  (  1.471695,  0.657908,  5.253255 )     3.88163726
  WF centre and spread   55  (  1.935507,  2.001827,  4.041809 )     6.94015046
  WF centre and spread   56  (  1.236470,  1.428649,  4.270302 )     5.63946262
  WF centre and spread   57  ( -0.291677,  1.618563,  1.660479 )     5.66541030
  WF centre and spread   58  (  3.092587,  0.103825,  5.145962 )     1.72883482
  WF centre and spread   59  (  1.690993,  3.061745,  5.876208 )     1.22410169
  WF centre and spread   60  (  2.449926,  0.860123,  4.782791 )     1.40740186
  WF centre and spread   61  ( -0.358251,  2.601487,  3.028211 )     6.00544013
  WF centre and spread   62  ( -0.764394,  2.724416,  2.028713 )     3.20130724
  WF centre and spread   63  ( -0.951599,  1.856617,  5.079400 )     4.92862005
  WF centre and spread   64  (  2.142309,  1.297006,  5.332269 )     9.45292149
  Sum of centres and spreads ( 59.645012, 96.731541,207.084681 )   354.08911120
 
      3    -0.388E+02     9.6641112370      354.0891071930      65.58  <-- CONV
        O_D=      4.4663831 O_OD=    239.5900958 O_TOT=    354.0891072 <-- SPRD
 Delta: O_D= -0.5380174E-01 O_OD= -0.3874532E+02 O_TOT= -0.3879912E+02 <-- DLTA
 ------------------------------------------------------------------------------
 Cycle:      4
  WF centre and spread    1  (  1.618336,  0.469623,  4.537456 )     1.91505639
  WF centre and spread    2  (  2.020400,  0.096339,  0.860271 )     2.92265373
  WF centre and spread    3  ( -1.238110,  2.577338,  0.918749 )     4.07386456
  WF centre and spread    4  (  2.176485,  0.366716,  5.930745 )     4.48645330
  WF centre and spread    5  (  1.480810,  1.748254,  4.527173 )     4.30736157
  WF centre and spread    6  (  0.586692,  0.740320,  1.817790 )     6.59053006
  WF centre and spread    7  (  0.244550,  2.089966,  0.758391 )     3.21937193
  WF centre and spread    8  (  0.158345,  2.007027,  2.062163 )     1.49898716
  WF centre and spread    9  (  0.664484,  1.034592,  5.152238 )     4.14914053
  WF centre and spread   10  ( -0.329128,  1.008755,  0.675012 )     2.52542375
  WF centre and spread   11  (  1.904244,  1.762672,  1.490933 )    13.50183135
  WF centre and spread   12  (  0.147699,  2.615258,  1.145716 )     2.62473704
  WF centre and spread   13  (  2.037342,  1.577156,  3.275450 )    15.24436917
  WF centre and spread   14  (  1.973909,  2.391070,  5.713602 )     1.81941599
  WF centre and spread   15  ( -0.801205,  2.908617,  0.371079 )     2.62020700
  WF centre and spread   16  (  0.548236,  2.367082,  4.697817 )     5.34663748
  WF centre and spread   17  (  0.243649,  1.591217,  1.309639 )     6.84588672
  WF centre and spread   18  ( -0.364315,  1.363957,  4.468382 )     6.29144786
  WF centre and spread   19  (  1.337904,  2.645857,  3.749743 )     6.03064526
  WF centre and spread   20  (  2.935345,  0.754607,  5.806173 )     2.75692631
  WF centre and spread   21  (  0.735996,  0.500465,  5.714168 )     4.20928990
  WF centre and spread   22  (  0.603144,  0.807187,  3.031361 )     9.33961550
  WF centre and spread   23  (  2.097226, -0.330990,  2.141283 )     4.19903510
  WF centre and spread   24  ( -1.623447,  2.841159,  4.813263 )     3.72573621
  WF centre and spread   25  (  1.493209,  2.178625,  2.243317 )     7.32963471
  WF centre and spread   26  (  0.074370, -0.007707,  1.254662 )     3.27179012
  WF centre and spread   27  ( -0.959038,  2.112108,  0.256266 )     4.20473388
  WF centre and spread   28  (  2.011963,  2.339716,  5.857607 )     5.99229162
  WF centre and spread   29  (  1.571238,  3.108640,  2.269628 )     8.57158055
  WF centre and spread   30  (  1.089073,  1.556439,  3.121247 )    10.45116129
  WF centre and spread   31  (  2.478043,  1.512067,  1.059586 )     4.44715068
  WF centre and spread   32  (  1.018190,  2.572526,  0.252190 )     1.73534007
  WF centre and spread   33  (  2.139374,  0.399938,  1.504686 )     8.42347552
  WF centre and spread   34  (  0.520371,  0.509350,  4.130633 )     5.01840375
  WF centre and spread   35  (  2.876789,  0.119932,  1.614678 )     5.68064534
  WF centre and spread   36  (  0.480329,  0.661438,  0.717501 )     2.85892163
  WF centre and spread   37  ( -0.590084,  2.031677,  1.244997 )     2.29706617
  WF centre and spread   38  (  2.058671,  0.972920,  3.975678 )     3.11546755
  WF centre and spread   39  ( -0.020011,  0.271108,  5.927133 )     0.87245963
  WF centre and spread   40  (  1.191458,  1.525968,  0.137015 )     4.07374356
  WF centre and spread   41  ( -0.033968,  2.073241,  5.755098 )     5.06376792
  WF centre and spread   42  (  1.313357,  1.539235,  1.126047 )     6.81276627
  WF centre and spread   43  (  1.652844,  1.275170,  4.420024 )     4.69372111
  WF centre and spread   44  (  3.053313,  0.667331,  3.399948 )     5.14213886
  WF centre and spread   45  ( -0.709862,  2.266527,  4.400306 )    10.59843313
  WF centre and spread   46  (  2.950111,  1.507919,  3.473785 )    11.73566478
  WF centre and spread   47  (  0.307825,  1.702362,  3.555391 )     7.72690462
  WF centre and spread   48  (  1.855386,  0.498834,  2.363701 )    10.53438097
  WF centre and spread   49  (  0.240044,  0.937277,  5.878010 )     4.95684444
  WF centre and spread   50  ( -0.461594,  2.731313,  4.828831 )     9.13683605
  WF centre and spread   51  (  1.615268,  0.472511,  3.893987 )     6.09942984
  WF centre and spread   52  ( -0.935980,  2.970564,  5.409213 )     2.59888479
  WF centre and spread   53  (  0.594671,  2.079982,  1.489271 )     2.54147913
  WF centre and spread   54  (  1.475424,  0.658790,  5.250717 )     3.63915872
  WF centre and spread   55  (  1.935931,  1.999125,  4.056756 )     6.47461768
  WF centre and spread   56  (  1.253399,  1.428917,  4.279611 )     5.12463926
  WF centre and spread   57  ( -0.292152,  1.629450,  1.654024 )     4.97351295
  WF centre and spread   58  (  3.094189,  0.102613,  5.154351 )     1.64650298
  WF centre and spread   59  (  1.694543,  3.062211,  5.876751 )     1.12926094
  WF centre and spread   60  (  2.448449,  0.857934,  4.777972 )     1.34748494
  WF centre and spread   61  ( -0.358313,  2.601996,  3.025139 )     5.82808493
  WF centre and spread   62  ( -0.757699,  2.713521,  2.012827 )     3.06485502
  WF centre and spread   63  ( -0.949938,  1.860418,  5.089658 )     4.78043224
  WF centre and spread   64  (  2.144556,  1.285767,  5.336670 )     8.20649200
  Sum of centres and spreads ( 59.722342, 96.721993,207.043507 )   332.44478355
 
      4    -0.216E+02     7.1982053712      332.4447795515      79.43  <-- CONV
        O_D=      3.2459348 O_OD=    219.1662165 O_TOT=    332.4447796 <-- SPRD
 Delta: O_D= -0.1220448E+01 O_OD= -0.2042388E+02 O_TOT= -0.2164433E+02 <-- DLTA
 ------------------------------------------------------------------------------
 Cycle:      5
  WF centre and spread    1  (  1.618055,  0.468943,  4.540100 )     1.83408986
  WF centre and spread    2  (  2.023950,  0.096849,  0.853643 )     2.84431707
  WF centre and spread    3  ( -1.243441,  2.581997,  0.909525 )     3.81806138
  WF centre and spread    4  (  2.187956,  0.359908,  5.926161 )     4.37308444
  WF centre and spread    5  (  1.489152,  1.737667,  4.527913 )     4.02574234
  WF centre and spread    6  (  0.582256,  0.741444,  1.811682 )     6.37645069
  WF centre and spread    7  (  0.244812,  2.090274,  0.763761 )     3.02809115
  WF centre and spread    8  (  0.156240,  2.007674,  2.056892 )     1.43964382
  WF centre and spread    9  (  0.657669,  1.028862,  5.155732 )     3.98048062
  WF centre and spread   10  ( -0.330725,  0.994875,  0.666919 )     2.45659426
  WF centre and spread   11  (  1.920160,  1.809690,  1.371259 )    13.29029061
  WF centre and spread   12  (  0.149775,  2.622908,  1.141501 )     2.45730111
  WF centre and spread   13  (  2.040858,  1.586314,  3.276927 )    14.95649574
  WF centre and spread   14  (  1.972476,  2.395512,  5.715241 )     1.75326310
  WF centre and spread   15  ( -0.813170,  2.913155,  0.369162 )     2.45861311
  WF centre and spread   16  (  0.556819,  2.359567,  4.702116 )     5.17645651
  WF centre and spread   17  (  0.245526,  1.595019,  1.304770 )     6.19142958
  WF centre and spread   18  ( -0.367355,  1.351027,  4.480566 )     6.06540694
  WF centre and spread   19  (  1.336964,  2.647528,  3.756094 )     5.90696038
  WF centre and spread   20  (  2.939035,  0.744400,  5.808404 )     2.67194689
  WF centre and spread   21  (  0.726956,  0.486012,  5.718302 )     3.87867512
  WF centre and spread   22  (  0.603144,  0.802960,  3.032276 )     9.01637722
  WF centre and spread   23  (  2.092684, -0.337450,  2.130068 )     4.01466302
  WF centre and spread   24  ( -1.625717,  2.841614,  4.826574 )     3.57530002
  WF centre and spread   25  (  1.485256,  2.172755,  2.222486 )     7.17189952
  WF centre and spread   26  (  0.073055, -0.015649,  1.245589 )     3.11881105
  WF centre and spread   27  ( -0.967757,  2.112623,  0.253644 )     4.07355030
  WF centre and spread   28  (  2.008967,  2.382438,  5.864621 )     5.28627323
  WF centre and spread   29  (  1.562524,  3.096199,  2.239872 )     8.32327191
  WF centre and spread   30  (  1.092997,  1.558937,  3.129039 )    10.03231311
  WF centre and spread   31  (  2.481174,  1.517630,  1.055459 )     4.29548051
  WF centre and spread   32  (  1.026155,  2.580399,  0.250839 )     1.65545456
  WF centre and spread   33  (  2.151259,  0.399953,  1.463676 )     7.83132036
  WF centre and spread   34  (  0.523057,  0.513767,  4.139947 )     4.89337618
  WF centre and spread   35  (  2.885012,  0.125681,  1.602817 )     5.46092415
  WF centre and spread   36  (  0.481513,  0.650707,  0.707376 )     2.74232701
  WF centre and spread   37  ( -0.589195,  2.031511,  1.243391 )     2.11770484
  WF centre and spread   38  (  2.059534,  0.971472,  3.987396 )     2.90428214
  WF centre and spread   39  ( -0.019492,  0.264725,  5.927729 )     0.83222298
  WF centre and spread   40  (  1.191665,  1.525831,  0.130715 )     4.00633976
  WF centre and spread   41  ( -0.024488,  2.079024,  5.762263 )     4.90770107
  WF centre and spread   42  (  1.310518,  1.544177,  1.120435 )     6.47311727
  WF centre and spread   43  (  1.657286,  1.268957,  4.429651 )     4.35961224
  WF centre and spread   44  (  3.047305,  0.666396,  3.399110 )     5.02574316
  WF centre and spread   45  ( -0.708177,  2.275460,  4.438783 )    10.19408625
  WF centre and spread   46  (  2.961343,  1.524044,  3.496362 )    11.31896804
  WF centre and spread   47  (  0.321599,  1.702646,  3.554468 )     7.53192125
  WF centre and spread   48  (  1.872590,  0.488218,  2.333126 )    10.10123896
  WF centre and spread   49  (  0.234812,  0.925807,  5.884693 )     4.63819081
  WF centre and spread   50  ( -0.463930,  2.731049,  4.841806 )     8.70554984
  WF centre and spread   51  (  1.625942,  0.475419,  3.914786 )     5.91135995
  WF centre and spread   52  ( -0.944486,  2.969792,  5.411201 )     2.52032456
  WF centre and spread   53  (  0.592469,  2.082611,  1.483523 )     2.35249872
  WF centre and spread   54  (  1.478872,  0.659267,  5.246976 )     3.48429645
  WF centre and spread   55  (  1.936781,  1.996758,  4.069047 )     6.13196712
  WF centre and spread   56  (  1.266711,  1.428825,  4.285046 )     4.74777093
  WF centre and spread   57  ( -0.292531,  1.637806,  1.652318 )     4.50672217
  WF centre and spread   58  (  3.095719,  0.101161,  5.161708 )     1.58661019
  WF centre and spread   59  (  1.697744,  3.062581,  5.877396 )     1.06053155
  WF centre and spread   60  (  2.447327,  0.856366,  4.773200 )     1.31374508
  WF centre and spread   61  ( -0.357560,  2.601955,  3.022900 )     5.70561015
  WF centre and spread   62  ( -0.752428,  2.704733,  1.998234 )     2.96703493
  WF centre and spread   63  ( -0.945619,  1.863296,  5.096893 )     4.70180248
  WF centre and spread   64  (  2.143848,  1.278130,  5.337772 )     7.48619208
  Sum of centres and spreads ( 59.811446, 96.740204,206.901882 )   318.06788184
 
      5    -0.144E+02     6.0811336085      318.0678778563      93.27  <-- CONV
        O_D=      3.5112909 O_OD=    204.5239586 O_TOT=    318.0678779 <-- SPRD
 Delta: O_D=  0.2653562E+00 O_OD= -0.1464226E+02 O_TOT= -0.1437690E+02 <-- DLTA
 ------------------------------------------------------------------------------
 Cycle:      6
  WF centre and spread    1  (  1.617510,  0.467993,  4.541565 )     1.78729387
  WF centre and spread    2  (  2.028618,  0.097737,  0.847420 )     2.80561435
  WF centre and spread    3  ( -1.249099,  2.587041,  0.899526 )     3.66427793
  WF centre and spread    4  (  2.199161,  0.353967,  5.921948 )     4.31705965
  WF centre and spread    5  (  1.496788,  1.727999,  4.528979 )     3.81986703
  WF centre and spread    6  (  0.581300,  0.742466,  1.807611 )     6.24402554
  WF centre and spread    7  (  0.244484,  2.090106,  0.769452 )     2.89422136
  WF centre and spread    8  (  0.154421,  2.008406,  2.052420 )     1.40884555
  WF centre and spread    9  (  0.650762,  1.024334,  5.158081 )     3.88100612
  WF centre and spread   10  ( -0.332123,  0.981438,  0.659560 )     2.41783118
  WF centre and spread   11  (  1.930791,  1.845524,  1.346722 )    12.23814295
  WF centre and spread   12  (  0.151771,  2.629441,  1.137780 )     2.34397875
  WF centre and spread   13  (  2.042903,  1.593596,  3.276330 )    14.72892499
  WF centre and spread   14  (  1.971136,  2.399273,  5.716839 )     1.71598290
  WF centre and spread   15  ( -0.824979,  2.916870,  0.366919 )     2.36252783
  WF centre and spread   16  (  0.564434,  2.352362,  4.705799 )     5.06982105
  WF centre and spread   17  (  0.246344,  1.597536,  1.302941 )     5.70263577
  WF centre and spread   18  ( -0.368573,  1.338403,  4.490962 )     5.91057938
  WF centre and spread   19  (  1.336295,  2.648880,  3.763040 )     5.83648600
  WF centre and spread   20  (  2.942380,  0.735233,  5.810518 )     2.62598295
  WF centre and spread   21  (  0.719292,  0.472113,  5.721071 )     3.67577982
  WF centre and spread   22  (  0.603163,  0.800243,  3.032692 )     8.79688387
  WF centre and spread   23  (  2.088123, -0.343215,  2.119390 )     3.89236108
  WF centre and spread   24  ( -1.627151,  2.841906,  4.837911 )     3.48389783
  WF centre and spread   25  (  1.477988,  2.167062,  2.203499 )     7.09321045
  WF centre and spread   26  (  0.071723, -0.022978,  1.237424 )     3.03482099
  WF centre and spread   27  ( -0.976386,  2.112701,  0.250637 )     3.99732948
  WF centre and spread   28  (  2.004042,  2.420635,  5.871808 )     4.78170030
  WF centre and spread   29  (  1.554521,  3.083872,  2.212796 )     8.13616831
  WF centre and spread   30  (  1.097665,  1.560548,  3.135966 )     9.73557416
  WF centre and spread   31  (  2.482158,  1.521852,  1.052842 )     4.22187994
  WF centre and spread   32  (  1.034198,  2.587403,  0.249825 )     1.61388984
  WF centre and spread   33  (  2.165873,  0.400688,  1.424595 )     7.38272476
  WF centre and spread   34  (  0.525979,  0.517655,  4.149436 )     4.82706196
  WF centre and spread   35  (  2.892162,  0.132733,  1.592720 )     5.31580271
  WF centre and spread   36  (  0.482513,  0.640990,  0.698448 )     2.67392564
  WF centre and spread   37  ( -0.589224,  2.031299,  1.241616 )     2.00376033
  WF centre and spread   38  (  2.060170,  0.970692,  3.997442 )     2.76260354
  WF centre and spread   39  ( -0.018992,  0.258487,  5.928634 )     0.80388262
  WF centre and spread   40  (  1.192511,  1.524663,  0.124667 )     3.99994772
  WF centre and spread   41  ( -0.013299,  2.084140,  5.768361 )     4.82341996
  WF centre and spread   42  (  1.307460,  1.547210,  1.114794 )     6.24309427
  WF centre and spread   43  (  1.661318,  1.263825,  4.439374 )     4.10467071
  WF centre and spread   44  (  3.041275,  0.664293,  3.398381 )     4.95033357
  WF centre and spread   45  ( -0.706277,  2.285455,  4.474927 )     9.89541743
  WF centre and spread   46  (  2.972199,  1.539243,  3.521637 )    10.98777759
  WF centre and spread   47  (  0.335159,  1.703128,  3.551998 )     7.39670940
  WF centre and spread   48  (  1.891348,  0.480813,  2.304308 )     9.75297047
  WF centre and spread   49  (  0.230912,  0.916320,  5.890678 )     4.42155728
  WF centre and spread   50  ( -0.464958,  2.731627,  4.852631 )     8.40621495
  WF centre and spread   51  (  1.636408,  0.478624,  3.931976 )     5.81274530
  WF centre and spread   52  ( -0.952077,  2.968674,  5.412341 )     2.48000608
  WF centre and spread   53  (  0.591008,  2.084589,  1.478392 )     2.23651236
  WF centre and spread   54  (  1.482489,  0.659365,  5.242460 )     3.39403716
  WF centre and spread   55  (  1.937222,  1.994931,  4.082401 )     5.88612889
  WF centre and spread   56  (  1.278422,  1.427831,  4.289038 )     4.48186385
  WF centre and spread   57  ( -0.293096,  1.644439,  1.651808 )     4.16931276
  WF centre and spread   58  (  3.097263,  0.099549,  5.168829 )     1.54459099
  WF centre and spread   59  (  1.700802,  3.063072,  5.878182 )     1.01267553
  WF centre and spread   60  (  2.446227,  0.855093,  4.768279 )     1.30116487
  WF centre and spread   61  ( -0.356361,  2.601684,  3.020927 )     5.62303668
  WF centre and spread   62  ( -0.747663,  2.696127,  1.984258 )     2.89782058
  WF centre and spread   63  ( -0.938880,  1.865583,  5.102972 )     4.69012377
  WF centre and spread   64  (  2.140907,  1.267721,  5.336822 )     6.84816278
  Sum of centres and spreads ( 59.902458, 96.741293,206.853606 )   307.36865773
 
      6    -0.107E+02     5.0695275998      307.3686537547     107.14  <-- CONV
        O_D=      2.8222983 O_OD=    194.5137271 O_TOT=    307.3686538 <-- SPRD
 Delta: O_D= -0.6889926E+00 O_OD= -0.1001023E+02 O_TOT= -0.1069922E+02 <-- DLTA
 ------------------------------------------------------------------------------
 Cycle:      7
  WF centre and spread    1  (  1.617310,  0.467196,  4.541912 )     1.73721415
  WF centre and spread    2  (  2.031934,  0.098724,  0.844435 )     2.74542046
  WF centre and spread    3  ( -1.251945,  2.589187,  0.893876 )     3.52083964
  WF centre and spread    4  (  2.204881,  0.351835,  5.918976 )     4.22686631
  WF centre and spread    5  (  1.500368,  1.724086,  4.528627 )     3.67144274
  WF centre and spread    6  (  0.583680,  0.742011,  1.806432 )     6.08333182
  WF centre and spread    7  (  0.243721,  2.089631,  0.773144 )     2.78482217
  WF centre and spread    8  (  0.153795,  2.008638,  2.051100 )     1.37278448
  WF centre and spread    9  (  0.647709,  1.023443,  5.157613 )     3.75105354
  WF centre and spread   10  ( -0.332920,  0.974728,  0.656424 )     2.35730154
  WF centre and spread   11  (  1.937741,  1.865745,  1.314315 )    11.82026304
  WF centre and spread   12  (  0.153062,  2.632083,  1.136691 )     2.25083260
  WF centre and spread   13  (  2.043095,  1.597009,  3.280331 )    14.35169009
  WF centre and spread   14  (  1.970333,  2.400701,  5.717903 )     1.65387055
  WF centre and spread   15  ( -0.831097,  2.918063,  0.365186 )     2.25726078
  WF centre and spread   16  (  0.567542,  2.349281,  4.704579 )     4.92739103
  WF centre and spread   17  (  0.247188,  1.598107,  1.304839 )     5.34800960
  WF centre and spread   18  ( -0.366926,  1.332359,  4.492326 )     5.71258646
  WF centre and spread   19  (  1.335926,  2.649245,  3.764538 )     5.67778690
  WF centre and spread   20  (  2.943614,  0.731369,  5.811171 )     2.55983345
  WF centre and spread   21  (  0.716720,  0.465313,  5.721370 )     3.50782079
  WF centre and spread   22  (  0.603147,  0.799724,  3.031979 )     8.56636013
  WF centre and spread   23  (  2.086571, -0.345772,  2.114729 )     3.75826354
  WF centre and spread   24  ( -1.627610,  2.841185,  4.841845 )     3.38370629
  WF centre and spread   25  (  1.474472,  2.165140,  2.194778 )     6.89327217
  WF centre and spread   26  (  0.070862, -0.026245,  1.234224 )     2.94510328
  WF centre and spread   27  ( -0.980879,  2.112135,  0.248680 )     3.87722338
  WF centre and spread   28  (  1.999855,  2.439870,  5.875812 )     4.38193865
  WF centre and spread   29  (  1.550729,  3.077337,  2.201769 )     7.88962863
  WF centre and spread   30  (  1.100710,  1.561024,  3.136888 )     9.43075222
  WF centre and spread   31  (  2.480882,  1.523226,  1.051634 )     4.11811864
  WF centre and spread   32  (  1.038119,  2.590246,  0.249483 )     1.55999254
  WF centre and spread   33  (  2.175575,  0.401192,  1.407660 )     7.02867235
  WF centre and spread   34  (  0.527710,  0.518383,  4.154108 )     4.71792244
  WF centre and spread   35  (  2.894826,  0.136878,  1.588778 )     5.16764502
  WF centre and spread   36  (  0.482765,  0.637106,  0.695405 )     2.59770744
  WF centre and spread   37  ( -0.589632,  2.031083,  1.241014 )     1.91552814
  WF centre and spread   38  (  2.060614,  0.970829,  4.000602 )     2.64548013
  WF centre and spread   39  ( -0.018711,  0.255441,  5.929154 )     0.77287683
  WF centre and spread   40  (  1.193539,  1.523425,  0.121475 )     3.92890373
  WF centre and spread   41  ( -0.006102,  2.086484,  5.771210 )     4.70046688
  WF centre and spread   42  (  1.306252,  1.546685,  1.112778 )     6.03378717
  WF centre and spread   43  (  1.663078,  1.261790,  4.443441 )     3.92464794
  WF centre and spread   44  (  3.038403,  0.662851,  3.397874 )     4.82969958
  WF centre and spread   45  ( -0.707322,  2.293729,  4.492791 )     9.57847711
  WF centre and spread   46  (  2.977136,  1.546465,  3.537131 )    10.66551569
  WF centre and spread   47  (  0.340468,  1.702962,  3.548641 )     7.20522718
  WF centre and spread   48  (  1.901635,  0.476781,  2.290918 )     9.41667606
  WF centre and spread   49  (  0.229725,  0.913652,  5.893260 )     4.25553911
  WF centre and spread   50  ( -0.465344,  2.734150,  4.854876 )     8.11892828
  WF centre and spread   51  (  1.642604,  0.479680,  3.938037 )     5.67429158
  WF centre and spread   52  ( -0.955390,  2.967436,  5.412319 )     2.40761792
  WF centre and spread   53  (  0.591103,  2.085093,  1.476435 )     2.14393248
  WF centre and spread   54  (  1.484340,  0.658881,  5.238893 )     3.29092963
  WF centre and spread   55  (  1.935629,  1.995344,  4.089663 )     5.68021052
  WF centre and spread   56  (  1.282941,  1.426940,  4.289161 )     4.27590199
  WF centre and spread   57  ( -0.292508,  1.647369,  1.653521 )     3.91182836
  WF centre and spread   58  (  3.098348,  0.098402,  5.172120 )     1.49216165
  WF centre and spread   59  (  1.702283,  3.063264,  5.878480 )     0.96211984
  WF centre and spread   60  (  2.445859,  0.854403,  4.765858 )     1.27120114
  WF centre and spread   61  ( -0.356240,  2.601061,  3.021486 )     5.48787405
  WF centre and spread   62  ( -0.745858,  2.692181,  1.979136 )     2.80659875
  WF centre and spread   63  ( -0.933745,  1.866464,  5.103589 )     4.61127573
  WF centre and spread   64  (  2.137643,  1.261354,  5.333017 )     6.40845859
  Sum of centres and spreads ( 59.954215, 96.744383,206.800442 )   297.05088495
 
      7    -0.103E+02     4.2186938968      297.0508809854     120.94  <-- CONV
        O_D=      2.6206195 O_OD=    184.3976332 O_TOT=    297.0508810 <-- SPRD
 Delta: O_D= -0.2016788E+00 O_OD= -0.1011609E+02 O_TOT= -0.1031777E+02 <-- DLTA
 ------------------------------------------------------------------------------
 Cycle:      8
  WF centre and spread    1  (  1.616728,  0.465416,  4.541554 )     1.71810516
  WF centre and spread    2  (  2.040282,  0.101473,  0.837991 )     2.75431899
  WF centre and spread    3  ( -1.258838,  2.595497,  0.882130 )     3.44138233
  WF centre and spread    4  (  2.218195,  0.347004,  5.912989 )     4.23520995
  WF centre and spread    5  (  1.508259,  1.714826,  4.525785 )     3.53556291
  WF centre and spread    6  (  0.591055,  0.741115,  1.808320 )     5.98803961
  WF centre and spread    7  (  0.241441,  2.087603,  0.781192 )     2.70277523
  WF centre and spread    8  (  0.152406,  2.009348,  2.048360 )     1.35598123
  WF centre and spread    9  (  0.640633,  1.021526,  5.155878 )     3.69032314
  WF centre and spread   10  ( -0.334525,  0.958484,  0.649558 )     2.33490400
  WF centre and spread   11  (  1.948384,  1.907590,  1.265933 )    11.49822982
  WF centre and spread   12  (  0.155726,  2.638006,  1.134290 )     2.18549728
  WF centre and spread   13  (  2.045099,  1.608985,  3.269576 )    14.26947770
  WF centre and spread   14  (  1.968063,  2.403741,  5.719803 )     1.62855453
  WF centre and spread   15  ( -0.845091,  2.920658,  0.362240 )     2.19871542
  WF centre and spread   16  (  0.574546,  2.341561,  4.703250 )     4.86503423
  WF centre and spread   17  (  0.249878,  1.600415,  1.312252 )     5.03283869
  WF centre and spread   18  ( -0.361520,  1.317782,  4.495571 )     5.59997522
  WF centre and spread   19  (  1.335729,  2.650405,  3.769452 )     5.57571605
  WF centre and spread   20  (  2.946000,  0.722518,  5.812102 )     2.54253671
  WF centre and spread   21  (  0.709328,  0.449239,  5.721407 )     3.39497271
  WF centre and spread   22  (  0.604125,  0.800004,  3.032138 )     8.42385761
  WF centre and spread   23  (  2.082363, -0.351344,  2.104815 )     3.64216588
  WF centre and spread   24  ( -1.628663,  2.839726,  4.850014 )     3.34074711
  WF centre and spread   25  (  1.466664,  2.160612,  2.174227 )     6.77883671
  WF centre and spread   26  (  0.068848, -0.033442,  1.227814 )     2.90087263
  WF centre and spread   27  ( -0.991607,  2.110581,  0.245147 )     3.85265726
  WF centre and spread   28  (  1.986880,  2.485791,  5.884423 )     4.10101590
  WF centre and spread   29  (  1.542669,  3.062688,  2.177377 )     7.68874655
  WF centre and spread   30  (  1.109220,  1.563138,  3.138825 )     9.19194263
  WF centre and spread   31  (  2.477776,  1.526364,  1.050931 )     4.10203797
  WF centre and spread   32  (  1.047669,  2.596823,  0.248848 )     1.54766201
  WF centre and spread   33  (  2.197824,  0.403381,  1.372309 )     6.73069640
  WF centre and spread   34  (  0.532177,  0.520855,  4.163564 )     4.70511238
  WF centre and spread   35  (  2.900923,  0.148137,  1.583492 )     5.05906377
  WF centre and spread   36  (  0.483368,  0.627861,  0.688888 )     2.55905981
  WF centre and spread   37  ( -0.590987,  2.030620,  1.240059 )     1.84454412
  WF centre and spread   38  (  2.061189,  0.971787,  4.007387 )     2.54116641
  WF centre and spread   39  ( -0.018063,  0.247851,  5.930525 )     0.75013437
  WF centre and spread   40  (  1.196154,  1.519586,  0.114971 )     3.97343522
  WF centre and spread   41  (  0.011408,  2.092371,  5.778112 )     4.68344619
  WF centre and spread   42  (  1.303701,  1.544102,  1.112361 )     5.87407627
  WF centre and spread   43  (  1.667221,  1.257139,  4.450801 )     3.74750110
  WF centre and spread   44  (  3.031541,  0.659575,  3.393969 )     4.76880321
  WF centre and spread   45  ( -0.710715,  2.311814,  4.529566 )     9.39302974
  WF centre and spread   46  (  2.988948,  1.563935,  3.568489 )    10.49698872
  WF centre and spread   47  (  0.353248,  1.702675,  3.539896 )     7.07214376
  WF centre and spread   48  (  1.925743,  0.469132,  2.263611 )     9.11949389
  WF centre and spread   49  (  0.226824,  0.907495,  5.899580 )     4.13426831
  WF centre and spread   50  ( -0.463318,  2.740531,  4.859016 )     7.97778379
  WF centre and spread   51  (  1.657187,  0.482948,  3.949632 )     5.65850644
  WF centre and spread   52  ( -0.962740,  2.964445,  5.412043 )     2.38258790
  WF centre and spread   53  (  0.591441,  2.085623,  1.472847 )     2.07908784
  WF centre and spread   54  (  1.488554,  0.657682,  5.230755 )     3.24459771
  WF centre and spread   55  (  1.932391,  1.995426,  4.105302 )     5.51276530
  WF centre and spread   56  (  1.293737,  1.423780,  4.288098 )     4.09223582
  WF centre and spread   57  ( -0.291114,  1.654104,  1.658743 )     3.68823468
  WF centre and spread   58  (  3.100796,  0.095817,  5.179454 )     1.46655296
  WF centre and spread   59  (  1.705737,  3.063916,  5.879304 )     0.92744721
  WF centre and spread   60  (  2.444638,  0.853125,  4.759681 )     1.27061374
  WF centre and spread   61  ( -0.355376,  2.599894,  3.020909 )     5.40368220
  WF centre and spread   62  ( -0.741502,  2.683130,  1.967001 )     2.74730633
  WF centre and spread   63  ( -0.918960,  1.867910,  5.105748 )     4.65924473
  WF centre and spread   64  (  2.124517,  1.245107,  5.322048 )     6.08114467
  Sum of centres and spreads ( 60.074213, 96.755886,206.692350 )   290.76344812
 
      8    -0.629E+01     2.3871954166      290.7634441673     134.79  <-- CONV
        O_D=      2.6122810 O_OD=    178.1185349 O_TOT=    290.7634442 <-- SPRD
 Delta: O_D= -0.8338487E-02 O_OD= -0.6279098E+01 O_TOT= -0.6287437E+01 <-- DLTA
 ------------------------------------------------------------------------------
 Cycle:      9
  WF centre and spread    1  (  1.615040,  0.461869,  4.540266 )     1.70914782
  WF centre and spread    2  (  2.061222,  0.107975,  0.824851 )     2.83121713
  WF centre and spread    3  ( -1.275989,  2.613133,  0.856332 )     3.32609353
  WF centre and spread    4  (  2.248333,  0.336158,  5.903586 )     4.30444483
  WF centre and spread    5  (  1.524897,  1.693427,  4.518609 )     3.29023425
  WF centre and spread    6  (  0.609962,  0.737355,  1.822757 )     5.87972102
  WF centre and spread    7  (  0.236019,  2.081082,  0.797034 )     2.58238005
  WF centre and spread    8  (  0.149787,  2.010650,  2.043053 )     1.35143714
  WF centre and spread    9  (  0.627325,  1.015665,  5.152094 )     3.63695925
  WF centre and spread   10  ( -0.337327,  0.922678,  0.635493 )     2.33429968
  WF centre and spread   11  (  1.964784,  2.008659,  1.155073 )    11.15508563
  WF centre and spread   12  (  0.160867,  2.649804,  1.129153 )     2.08052453
  WF centre and spread   13  (  2.069706,  1.624314,  3.265101 )    14.17497973
  WF centre and spread   14  (  1.961874,  2.411147,  5.725013 )     1.62632979
  WF centre and spread   15  ( -0.876216,  2.925183,  0.357100 )     2.13883436
  WF centre and spread   16  (  0.588733,  2.325624,  4.703352 )     4.88627488
  WF centre and spread   17  (  0.255900,  1.606644,  1.329804 )     4.45044584
  WF centre and spread   18  ( -0.345984,  1.285679,  4.504268 )     5.49572211
  WF centre and spread   19  (  1.336145,  2.652283,  3.783212 )     5.49690367
  WF centre and spread   20  (  2.951325,  0.704473,  5.813589 )     2.56382002
  WF centre and spread   21  (  0.687963,  0.415306,  5.723907 )     3.19291720
  WF centre and spread   22  (  0.608846,  0.800518,  3.031665 )     8.20209706
  WF centre and spread   23  (  2.071452, -0.364373,  2.082885 )     3.44651634
  WF centre and spread   24  ( -1.631293,  2.837259,  4.866661 )     3.30072098
  WF centre and spread   25  (  1.452378,  2.154139,  2.142456 )     6.70761409
  WF centre and spread   26  (  0.064589, -0.047571,  1.216633 )     2.85631761
  WF centre and spread   27  ( -1.015057,  2.107377,  0.240397 )     3.91164903
  WF centre and spread   28  (  1.957134,  2.586916,  5.903196 )     3.60554671
  WF centre and spread   29  (  1.527997,  3.035467,  2.140840 )     7.35740198
  WF centre and spread   30  (  1.125386,  1.565956,  3.144551 )     8.82110383
  WF centre and spread   31  (  2.472026,  1.533058,  1.051745 )     4.15996921
  WF centre and spread   32  (  1.069659,  2.610841,  0.246636 )     1.58011926
  WF centre and spread   33  (  2.242631,  0.406603,  1.305813 )     6.24934013
  WF centre and spread   34  (  0.542146,  0.528277,  4.183228 )     4.76680799
  WF centre and spread   35  (  2.915996,  0.175852,  1.581864 )     4.89687792
  WF centre and spread   36  (  0.484048,  0.608374,  0.676210 )     2.51486359
  WF centre and spread   37  ( -0.593932,  2.029828,  1.238124 )     1.72611595
  WF centre and spread   38  (  2.060988,  0.974490,  4.022347 )     2.36840124
  WF centre and spread   39  ( -0.016524,  0.230113,  5.934260 )     0.72020606
  WF centre and spread   40  (  1.201801,  1.509264,  0.103438 )     4.17160823
  WF centre and spread   41  (  0.049516,  2.104355,  5.790265 )     4.74912224
  WF centre and spread   42  (  1.299314,  1.537743,  1.118256 )     5.60008136
  WF centre and spread   43  (  1.675153,  1.245416,  4.466125 )     3.41230038
  WF centre and spread   44  (  3.016769,  0.654621,  3.383340 )     4.69343188
  WF centre and spread   45  ( -0.726054,  2.355010,  4.599080 )     9.09545790
  WF centre and spread   46  (  3.019933,  1.595790,  3.620671 )    10.24600496
  WF centre and spread   47  (  0.377160,  1.704530,  3.521614 )     6.87847931
  WF centre and spread   48  (  1.977417,  0.452219,  2.222316 )     8.59024863
  WF centre and spread   49  (  0.220376,  0.894480,  5.912062 )     3.92771499
  WF centre and spread   50  ( -0.457475,  2.755607,  4.864933 )     7.84576637
  WF centre and spread   51  (  1.686881,  0.492402,  3.974698 )     5.72569681
  WF centre and spread   52  ( -0.978631,  2.959178,  5.412453 )     2.37458140
  WF centre and spread   53  (  0.592919,  2.085954,  1.466486 )     1.96856893
  WF centre and spread   54  (  1.497260,  0.656359,  5.216442 )     3.22700788
  WF centre and spread   55  (  1.926176,  1.995823,  4.138690 )     5.24021602
  WF centre and spread   56  (  1.316750,  1.414563,  4.284735 )     3.78156354
  WF centre and spread   57  ( -0.289960,  1.669099,  1.669666 )     3.29117608
  WF centre and spread   58  (  3.105932,  0.090485,  5.196482 )     1.45922373
  WF centre and spread   59  (  1.713633,  3.065515,  5.882257 )     0.88192853
  WF centre and spread   60  (  2.441695,  0.850730,  4.746497 )     1.29777735
  WF centre and spread   61  ( -0.353817,  2.598235,  3.016495 )     5.25593595
  WF centre and spread   62  ( -0.730993,  2.663793,  1.939998 )     2.67864985
  WF centre and spread   63  ( -0.879156,  1.869766,  5.111654 )     4.86991224
  WF centre and spread   64  (  2.092228,  1.209377,  5.300499 )     5.55122822
  Sum of centres and spreads ( 60.347665, 96.792544,206.552311 )   282.51312426
 
      9    -0.825E+01     2.5582070091      282.5131203210     148.66  <-- CONV
        O_D=      2.7606116 O_OD=    169.7198804 O_TOT=    282.5131203 <-- SPRD
 Delta: O_D=  0.1483306E+00 O_OD= -0.8398654E+01 O_TOT= -0.8250324E+01 <-- DLTA
 ------------------------------------------------------------------------------
 Cycle:     10
  WF centre and spread    1  (  1.613353,  0.459607,  4.538635 )     1.70992584
  WF centre and spread    2  (  2.082333,  0.113912,  0.814449 )     2.91338610
  WF centre and spread    3  ( -1.294188,  2.632063,  0.833203 )     3.23557316
  WF centre and spread    4  (  2.276230,  0.325800,  5.898201 )     4.36080901
  WF centre and spread    5  (  1.538581,  1.672396,  4.513221 )     3.08811289
  WF centre and spread    6  (  0.627227,  0.731754,  1.841715 )     5.82066887
  WF centre and spread    7  (  0.231055,  2.073892,  0.810963 )     2.49531642
  WF centre and spread    8  (  0.147608,  2.011120,  2.038065 )     1.35951748
  WF centre and spread    9  (  0.619829,  1.008127,  5.148834 )     3.60843309
  WF centre and spread   10  ( -0.339204,  0.891789,  0.624718 )     2.35050376
  WF centre and spread   11  (  1.971283,  2.090896,  1.070276 )    10.53259422
  WF centre and spread   12  (  0.164741,  2.658811,  1.125653 )     1.99282957
  WF centre and spread   13  (  2.097636,  1.630224,  3.252910 )    14.02146370
  WF centre and spread   14  (  1.955321,  2.418871,  5.730053 )     1.63840474
  WF centre and spread   15  ( -0.903645,  2.928016,  0.352365 )     2.11313814
  WF centre and spread   16  (  0.600493,  2.314986,  4.704068 )     4.97459119
  WF centre and spread   17  (  0.258304,  1.613453,  1.344451 )     3.99621855
  WF centre and spread   18  ( -0.329964,  1.257887,  4.510295 )     5.45028608
  WF centre and spread   19  (  1.336439,  2.653256,  3.793735 )     5.45265484
  WF centre and spread   20  (  2.956920,  0.690222,  5.814672 )     2.58727217
  WF centre and spread   21  (  0.665021,  0.388333,  5.728755 )     3.01219836
  WF centre and spread   22  (  0.614770,  0.800603,  3.029489 )     8.07150042
  WF centre and spread   23  (  2.060930, -0.378051,  2.061238 )     3.29187486
  WF centre and spread   24  ( -1.634625,  2.836429,  4.882401 )     3.27015043
  WF centre and spread   25  (  1.441590,  2.152243,  2.123747 )     6.58050025
  WF centre and spread   26  (  0.060981, -0.058087,  1.206717 )     2.82248203
  WF centre and spread   27  ( -1.034708,  2.104939,  0.237274 )     4.01288635
  WF centre and spread   28  (  1.932842,  2.673652,  5.919782 )     3.17171414
  WF centre and spread   29  (  1.516580,  3.019211,  2.125672 )     7.13196741
  WF centre and spread   30  (  1.136088,  1.564533,  3.141992 )     8.54011331
  WF centre and spread   31  (  2.469439,  1.537936,  1.054438 )     4.24984802
  WF centre and spread   32  (  1.090102,  2.622701,  0.243849 )     1.63457393
  WF centre and spread   33  (  2.274333,  0.404236,  1.260665 )     5.92686481
  WF centre and spread   34  (  0.550846,  0.536497,  4.198607 )     4.84490747
  WF centre and spread   35  (  2.930261,  0.202476,  1.585728 )     4.78220326
  WF centre and spread   36  (  0.483674,  0.592438,  0.666501 )     2.47359335
  WF centre and spread   37  ( -0.595809,  2.029209,  1.236648 )     1.62932963
  WF centre and spread   38  (  2.058909,  0.977056,  4.034031 )     2.23546407
  WF centre and spread   39  ( -0.014894,  0.213681,  5.938265 )     0.69755504
  WF centre and spread   40  (  1.206388,  1.499555,  0.094551 )     4.36471230
  WF centre and spread   41  (  0.081793,  2.114065,  5.797417 )     4.83749274
  WF centre and spread   42  (  1.297347,  1.532944,  1.126850 )     5.38374647
  WF centre and spread   43  (  1.680641,  1.232636,  4.479342 )     3.14009425
  WF centre and spread   44  (  3.001773,  0.652364,  3.373832 )     4.64419745
  WF centre and spread   45  ( -0.748750,  2.397559,  4.641005 )     8.93565422
  WF centre and spread   46  (  3.049134,  1.618463,  3.645561 )    10.07963227
  WF centre and spread   47  (  0.393606,  1.709212,  3.509169 )     6.75435306
  WF centre and spread   48  (  2.019782,  0.437189,  2.204608 )     8.23715613
  WF centre and spread   49  (  0.215093,  0.884391,  5.921076 )     3.74515054
  WF centre and spread   50  ( -0.451421,  2.770130,  4.864339 )     7.79906060
  WF centre and spread   51  (  1.707088,  0.502840,  3.994996 )     5.85777238
  WF centre and spread   52  ( -0.992963,  2.956329,  5.414901 )     2.36919162
  WF centre and spread   53  (  0.594434,  2.086386,  1.461948 )     1.87245008
  WF centre and spread   54  (  1.504218,  0.656408,  5.204990 )     3.22115018
  WF centre and spread   55  (  1.920541,  1.995393,  4.165123 )     5.06710407
  WF centre and spread   56  (  1.337257,  1.403617,  4.281004 )     3.54575585
  WF centre and spread   57  ( -0.292023,  1.682012,  1.676844 )     2.99365024
  WF centre and spread   58  (  3.110296,  0.086111,  5.212647 )     1.47366753
  WF centre and spread   59  (  1.720902,  3.067143,  5.886363 )     0.85271213
  WF centre and spread   60  (  2.438808,  0.849369,  4.735165 )     1.32892434
  WF centre and spread   61  ( -0.353849,  2.598473,  3.012023 )     5.15629928
  WF centre and spread   62  ( -0.720781,  2.646995,  1.916582 )     2.64137468
  WF centre and spread   63  ( -0.837538,  1.869229,  5.117251 )     5.09726172
  WF centre and spread   64  (  2.063612,  1.176912,  5.278115 )     5.15051241
  Sum of centres and spreads ( 60.562073, 96.822846,206.451983 )   276.63050353
 
     10    -0.588E+01     3.1128699983      276.6304996077     162.54  <-- CONV
        O_D=      2.4114628 O_OD=    164.1864085 O_TOT=    276.6304996 <-- SPRD
 Delta: O_D= -0.3491489E+00 O_OD= -0.5533472E+01 O_TOT= -0.5882621E+01 <-- DLTA
 ------------------------------------------------------------------------------
 Cycle:     11
  WF centre and spread    1  (  1.611793,  0.458439,  4.537271 )     1.71356578
  WF centre and spread    2  (  2.104509,  0.120183,  0.806473 )     2.98573386
  WF centre and spread    3  ( -1.315409,  2.652637,  0.808654 )     3.15441151
  WF centre and spread    4  (  2.304943,  0.312987,  5.894831 )     4.37288761
  WF centre and spread    5  (  1.551192,  1.649621,  4.509587 )     2.89873063
  WF centre and spread    6  (  0.644712,  0.723700,  1.862349 )     5.75976697
  WF centre and spread    7  (  0.226049,  2.066100,  0.825304 )     2.41244578
  WF centre and spread    8  (  0.145234,  2.010619,  2.032585 )     1.37390520
  WF centre and spread    9  (  0.616342,  0.999552,  5.146627 )     3.58931230
  WF centre and spread   10  ( -0.340129,  0.862779,  0.616036 )     2.36715158
  WF centre and spread   11  (  1.972831,  2.163563,  0.984311 )    10.02905812
  WF centre and spread   12  (  0.167388,  2.666385,  1.123406 )     1.91076273
  WF centre and spread   13  (  2.127672,  1.629453,  3.249511 )    13.88106868
  WF centre and spread   14  (  1.948378,  2.427007,  5.734992 )     1.66477243
  WF centre and spread   15  ( -0.929480,  2.930196,  0.346736 )     2.10291618
  WF centre and spread   16  (  0.612287,  2.308390,  4.704303 )     5.07996591
  WF centre and spread   17  (  0.257039,  1.621756,  1.357712 )     3.60106528
  WF centre and spread   18  ( -0.314208,  1.230641,  4.516188 )     5.39427102
  WF centre and spread   19  (  1.336159,  2.652875,  3.805486 )     5.41288415
  WF centre and spread   20  (  2.963373,  0.678030,  5.816264 )     2.59975896
  WF centre and spread   21  (  0.639607,  0.365404,  5.736150 )     2.85598463
  WF centre and spread   22  (  0.622859,  0.799088,  3.025597 )     7.96506990
  WF centre and spread   23  (  2.050876, -0.393310,  2.037866 )     3.14541696
  WF centre and spread   24  ( -1.638904,  2.836188,  4.899327 )     3.23053180
  WF centre and spread   25  (  1.430538,  2.152257,  2.113356 )     6.38684590
  WF centre and spread   26  (  0.057632, -0.066953,  1.195844 )     2.79738829
  WF centre and spread   27  ( -1.051316,  2.103144,  0.234308 )     4.12913095
  WF centre and spread   28  (  1.913078,  2.754833,  5.936189 )     2.79183339
  WF centre and spread   29  (  1.505223,  3.009148,  2.118231 )     6.94666634
  WF centre and spread   30  (  1.143894,  1.562492,  3.133375 )     8.25607437
  WF centre and spread   31  (  2.469641,  1.541061,  1.057316 )     4.35907202
  WF centre and spread   32  (  1.110217,  2.633685,  0.240712 )     1.70058523
  WF centre and spread   33  (  2.296238,  0.397748,  1.227615 )     5.67195028
  WF centre and spread   34  (  0.560239,  0.544057,  4.211287 )     4.91680617
  WF centre and spread   35  (  2.944680,  0.229979,  1.592195 )     4.68302869
  WF centre and spread   36  (  0.482545,  0.578314,  0.658305 )     2.43039748
  WF centre and spread   37  ( -0.596792,  2.028658,  1.235074 )     1.54830962
  WF centre and spread   38  (  2.056164,  0.979825,  4.043310 )     2.11293581
  WF centre and spread   39  ( -0.013008,  0.197460,  5.942723 )     0.67573655
  WF centre and spread   40  (  1.210491,  1.490591,  0.086435 )     4.53829677
  WF centre and spread   41  (  0.110621,  2.123617,  5.801617 )     4.92498994
  WF centre and spread   42  (  1.297609,  1.529644,  1.135685 )     5.17782971
  WF centre and spread   43  (  1.685017,  1.217891,  4.492926 )     2.89944011
  WF centre and spread   44  (  2.984923,  0.651058,  3.366035 )     4.58401468
  WF centre and spread   45  ( -0.775654,  2.441940,  4.670551 )     8.79146584
  WF centre and spread   46  (  3.077110,  1.635527,  3.658884 )     9.91164950
  WF centre and spread   47  (  0.406565,  1.715197,  3.502801 )     6.61052682
  WF centre and spread   48  (  2.057906,  0.421887,  2.198374 )     7.92192411
  WF centre and spread   49  (  0.210253,  0.876559,  5.927846 )     3.57411628
  WF centre and spread   50  ( -0.443276,  2.785268,  4.860262 )     7.76512268
  WF centre and spread   51  (  1.720418,  0.514805,  4.012811 )     5.99921559
  WF centre and spread   52  ( -1.008058,  2.954615,  5.419998 )     2.35883168
  WF centre and spread   53  (  0.595397,  2.087690,  1.458097 )     1.78818311
  WF centre and spread   54  (  1.510229,  0.656704,  5.195287 )     3.20739910
  WF centre and spread   55  (  1.914945,  1.992611,  4.188060 )     4.93576246
  WF centre and spread   56  (  1.358198,  1.390408,  4.279196 )     3.32395262
[...]
  WF centre and spread   46  (  2.978604,  1.788544,  3.540645 )     6.45975100
  WF centre and spread   47  (  0.579833,  1.806969,  3.409296 )     4.30264891
  WF centre and spread   48  (  2.434734,  0.663707,  2.298615 )     8.11401920
  WF centre and spread   49  (  0.226250,  0.984435,  5.935280 )     2.57568482
  WF centre and spread   50  ( -0.238584,  2.526841,  4.723941 )     8.35242541
  WF centre and spread   51  (  1.654393,  0.872974,  4.054984 )     4.90776706
  WF centre and spread   52  ( -1.102256,  2.859851,  5.536575 )     2.11595676
  WF centre and spread   53  (  0.588925,  2.125672,  1.430343 )     1.43060080
  WF centre and spread   54  (  1.470558,  0.806827,  5.035840 )     2.04047300
  WF centre and spread   55  (  1.938288,  2.073248,  4.047929 )     4.14930338
  WF centre and spread   56  (  1.451222,  1.272960,  4.209534 )     1.80406129
  WF centre and spread   57  ( -0.355888,  1.767739,  1.743617 )     1.71464013
  WF centre and spread   58  (  3.135544,  0.026621,  5.250654 )     1.79463987
  WF centre and spread   59  (  1.810570,  3.144835,  5.993688 )     0.43044996
  WF centre and spread   60  (  2.406483,  0.864526,  4.642181 )     1.18366394
  WF centre and spread   61  ( -0.341280,  2.680928,  3.032660 )     3.71980079
  WF centre and spread   62  ( -0.514207,  2.453146,  1.706092 )     1.41413779
  WF centre and spread   63  ( -0.247876,  1.747163,  5.073389 )     9.12902233
  WF centre and spread   64  (  1.970655,  1.162837,  5.071889 )     1.83068729
  Sum of centres and spreads ( 61.275497, 95.881976,206.191436 )   226.99296416
 
     98    -0.142E-01     0.7347407972      226.9929603779    1420.23  <-- CONV
        O_D=      1.9569677 O_OD=    115.0033644 O_TOT=    226.9929604 <-- SPRD
 Delta: O_D=  0.1781546E-01 O_OD= -0.3197145E-01 O_TOT= -0.1415599E-01 <-- DLTA
 ------------------------------------------------------------------------------
 Cycle:     99
  WF centre and spread    1  (  1.603334,  0.489871,  4.509313 )     1.51680195
  WF centre and spread    2  (  2.388489,  0.262393,  0.789162 )     2.25935356
  WF centre and spread    3  ( -1.681781,  2.868787,  0.421730 )     1.77030209
  WF centre and spread    4  (  2.684725,  0.056515,  5.887744 )     3.05882808
  WF centre and spread    5  (  1.603843,  1.559372,  4.504708 )     1.68294215
  WF centre and spread    6  (  0.680584,  0.644963,  2.026971 )     4.79624478
  WF centre and spread    7  (  0.189120,  1.967784,  0.936965 )     1.56490003
  WF centre and spread    8  (  0.159817,  1.986987,  2.033152 )     1.38130073
  WF centre and spread    9  (  0.541410,  0.717538,  5.147419 )     2.90971076
  WF centre and spread   10  ( -0.315002,  0.698240,  0.614019 )     2.24804833
  WF centre and spread   11  (  1.863721,  2.735786,  0.452271 )     3.99698707
  WF centre and spread   12  (  0.060162,  2.636885,  1.115474 )     1.29832743
  WF centre and spread   13  (  2.248734,  1.543146,  3.197246 )    14.51901646
  WF centre and spread   14  (  1.833824,  2.282559,  5.680038 )     1.90412763
  WF centre and spread   15  ( -1.032941,  2.934705,  0.350621 )     1.68901706
  WF centre and spread   16  (  0.607011,  2.147565,  4.568170 )     3.86568870
  WF centre and spread   17  (  0.134855,  1.602286,  1.482884 )     1.68852080
  WF centre and spread   18  (  0.060963,  0.768243,  4.510388 )     4.86264923
  WF centre and spread   19  (  1.187841,  2.672168,  4.019022 )     4.14710774
  WF centre and spread   20  (  2.992811,  0.685558,  5.800789 )     2.32415597
  WF centre and spread   21  (  0.242275,  0.144012,  5.938405 )     1.52340229
  WF centre and spread   22  (  0.770155,  0.414574,  2.867539 )    13.51741280
  WF centre and spread   23  (  1.967775, -0.628373,  1.771198 )     1.67918880
  WF centre and spread   24  ( -1.696203,  2.829362,  5.041494 )     2.49145748
  WF centre and spread   25  (  1.427957,  2.077582,  2.081714 )     4.60491011
  WF centre and spread   26  (  0.062379, -0.140920,  1.234115 )     2.57257837
  WF centre and spread   27  ( -1.132449,  1.927364,  0.375515 )     5.18831379
  WF centre and spread   28  (  1.828382,  3.150454,  6.017418 )     0.52965932
  WF centre and spread   29  (  1.255336,  2.951503,  2.403093 )     5.29684770
  WF centre and spread   30  (  1.389411,  1.343890,  3.025636 )     5.98332392
  WF centre and spread   31  (  2.365899,  1.394994,  1.260908 )     4.64607648
  WF centre and spread   32  (  1.182916,  2.573775,  0.249530 )     2.21631578
  WF centre and spread   33  (  2.314984,  0.315722,  1.074723 )     4.60172344
  WF centre and spread   34  (  0.688108,  0.431861,  4.010229 )     3.89165222
  WF centre and spread   35  (  3.101369,  0.681714,  2.055336 )     3.79020628
  WF centre and spread   36  (  0.483782,  0.571455,  0.672335 )     2.05372860
  WF centre and spread   37  ( -0.561146,  2.004877,  1.201669 )     1.36288755
  WF centre and spread   38  (  2.042194,  1.023522,  3.999807 )     1.43945322
  WF centre and spread   39  (  0.001867,  0.021195,  6.006090 )     0.42809087
  WF centre and spread   40  (  1.278295,  1.268980,  0.040543 )     4.81431493
  WF centre and spread   41  (  0.046978,  2.249372,  5.804733 )     5.47912904
  WF centre and spread   42  (  1.294819,  1.343547,  1.190558 )     4.38712355
  WF centre and spread   43  (  1.730846,  1.104611,  4.651567 )     2.08108939
  WF centre and spread   44  (  2.804918,  0.642201,  3.308038 )     3.51130013
  WF centre and spread   45  ( -1.272232,  3.292611,  5.127828 )     7.94143941
  WF centre and spread   46  (  2.978595,  1.788543,  3.540617 )     6.45921712
  WF centre and spread   47  (  0.579838,  1.806970,  3.409285 )     4.30257494
  WF centre and spread   48  (  2.434732,  0.663741,  2.298587 )     8.11416589
  WF centre and spread   49  (  0.226253,  0.984439,  5.935285 )     2.57566591
  WF centre and spread   50  ( -0.238588,  2.526796,  4.723924 )     8.35240828
  WF centre and spread   51  (  1.654423,  0.873031,  4.055016 )     4.90747491
  WF centre and spread   52  ( -1.102251,  2.859837,  5.536583 )     2.11596025
  WF centre and spread   53  (  0.588925,  2.125677,  1.430343 )     1.43058988
  WF centre and spread   54  (  1.470562,  0.806852,  5.035832 )     2.04032289
  WF centre and spread   55  (  1.938288,  2.073275,  4.047895 )     4.14931994
  WF centre and spread   56  (  1.451221,  1.272958,  4.209533 )     1.80399441
  WF centre and spread   57  ( -0.355891,  1.767741,  1.743623 )     1.71464000
  WF centre and spread   58  (  3.135541,  0.026617,  5.250651 )     1.79465027
  WF centre and spread   59  (  1.810573,  3.144839,  5.993693 )     0.43044311
  WF centre and spread   60  (  2.406484,  0.864524,  4.642177 )     1.18366062
  WF centre and spread   61  ( -0.341269,  2.680939,  3.032662 )     3.71977966
  WF centre and spread   62  ( -0.514201,  2.453145,  1.706085 )     1.41410804
  WF centre and spread   63  ( -0.247732,  1.747617,  5.068923 )     9.12072549
  WF centre and spread   64  (  1.970665,  1.162841,  5.071886 )     1.83060229
  Sum of centres and spreads ( 61.276304, 95.881620,206.190704 )   226.97595992
 
     99    -0.170E-01     1.3454871566      226.9759561315    1435.44  <-- CONV
        O_D=      1.9419344 O_OD=    115.0013934 O_TOT=    226.9759561 <-- SPRD
 Delta: O_D= -0.1503327E-01 O_OD= -0.1970980E-02 O_TOT= -0.1700425E-01 <-- DLTA
 ------------------------------------------------------------------------------
 Cycle:    100
  WF centre and spread    1  (  1.603343,  0.489882,  4.509316 )     1.51669027
  WF centre and spread    2  (  2.388543,  0.262380,  0.789160 )     2.25923516
  WF centre and spread    3  ( -1.681806,  2.868815,  0.421695 )     1.77024043
  WF centre and spread    4  (  2.684744,  0.056498,  5.887744 )     3.05869846
  WF centre and spread    5  (  1.603839,  1.559379,  4.504720 )     1.68286234
  WF centre and spread    6  (  0.680575,  0.644964,  2.026969 )     4.79609595
  WF centre and spread    7  (  0.189119,  1.967779,  0.936977 )     1.56489569
  WF centre and spread    8  (  0.159824,  1.986983,  2.033159 )     1.38128311
  WF centre and spread    9  (  0.541346,  0.717433,  5.147441 )     2.90967176
  WF centre and spread   10  ( -0.314993,  0.698238,  0.614025 )     2.24802843
  WF centre and spread   11  (  1.863713,  2.735778,  0.452280 )     3.99680797
  WF centre and spread   12  (  0.060147,  2.636877,  1.115473 )     1.29828606
  WF centre and spread   13  (  2.249591,  1.542696,  3.197569 )    14.51900724
  WF centre and spread   14  (  1.833811,  2.282535,  5.680031 )     1.90412633
  WF centre and spread   15  ( -1.032937,  2.934702,  0.350633 )     1.68898736
  WF centre and spread   16  (  0.606981,  2.147508,  4.568215 )     3.86533189
  WF centre and spread   17  (  0.134850,  1.602272,  1.482889 )     1.68844060
  WF centre and spread   18  (  0.061021,  0.768185,  4.510322 )     4.86302160
  WF centre and spread   19  (  1.187797,  2.672202,  4.019083 )     4.14711140
  WF centre and spread   20  (  2.992816,  0.685568,  5.800784 )     2.32411694
  WF centre and spread   21  (  0.242205,  0.143971,  5.938438 )     1.52318184
  WF centre and spread   22  (  0.770439,  0.413964,  2.872048 )    13.51503048
  WF centre and spread   23  (  1.967774, -0.628374,  1.771200 )     1.67917962
  WF centre and spread   24  ( -1.696203,  2.829352,  5.041490 )     2.49138663
  WF centre and spread   25  (  1.427937,  2.077567,  2.081711 )     4.60494323
  WF centre and spread   26  (  0.062402, -0.140941,  1.234162 )     2.57256593
  WF centre and spread   27  ( -1.132460,  1.927383,  0.375563 )     5.18863673
  WF centre and spread   28  (  1.828381,  3.150459,  6.017419 )     0.52961717
  WF centre and spread   29  (  1.255266,  2.951485,  2.403103 )     5.29661616
  WF centre and spread   30  (  1.389451,  1.343782,  3.025649 )     5.98306498
  WF centre and spread   31  (  2.365898,  1.394986,  1.260932 )     4.64613998
  WF centre and spread   32  (  1.182901,  2.573750,  0.249529 )     2.21644954
  WF centre and spread   33  (  2.314967,  0.315749,  1.074696 )     4.60171941
  WF centre and spread   34  (  0.688127,  0.431770,  4.010122 )     3.89118059
  WF centre and spread   35  (  3.101394,  0.681764,  2.055395 )     3.79007300
  WF centre and spread   36  (  0.483786,  0.571458,  0.672342 )     2.05373802
  WF centre and spread   37  ( -0.561137,  2.004871,  1.201666 )     1.36290993
  WF centre and spread   38  (  2.042192,  1.023529,  3.999797 )     1.43938857
  WF centre and spread   39  (  0.001866,  0.021186,  6.006094 )     0.42808374
  WF centre and spread   40  (  1.278313,  1.268948,  0.040520 )     4.81437018
  WF centre and spread   41  (  0.046943,  2.249368,  5.804727 )     5.47909780
  WF centre and spread   42  (  1.294824,  1.343535,  1.190564 )     4.38713899
  WF centre and spread   43  (  1.730871,  1.104584,  4.651580 )     2.08098746
  WF centre and spread   44  (  2.804903,  0.642180,  3.308045 )     3.51124675
  WF centre and spread   45  ( -1.272304,  3.292661,  5.127951 )     7.94107256
  WF centre and spread   46  (  2.978595,  1.788545,  3.540589 )     6.45821170
  WF centre and spread   47  (  0.579853,  1.806968,  3.409266 )     4.30226701
  WF centre and spread   48  (  2.434730,  0.663813,  2.298531 )     8.11441947
  WF centre and spread   49  (  0.226258,  0.984448,  5.935293 )     2.57561697
  WF centre and spread   50  ( -0.238620,  2.526710,  4.723882 )     8.35238579
  WF centre and spread   51  (  1.654483,  0.873164,  4.055085 )     4.90686665
  WF centre and spread   52  ( -1.102240,  2.859809,  5.536594 )     2.11598953
  WF centre and spread   53  (  0.588925,  2.125689,  1.430343 )     1.43057912
  WF centre and spread   54  (  1.470570,  0.806907,  5.035816 )     2.04001635
  WF centre and spread   55  (  1.938283,  2.073331,  4.047818 )     4.14936076
  WF centre and spread   56  (  1.451214,  1.272950,  4.209519 )     1.80385572
  WF centre and spread   57  ( -0.355896,  1.767746,  1.743638 )     1.71463596
  WF centre and spread   58  (  3.135536,  0.026610,  5.250649 )     1.79474548
  WF centre and spread   59  (  1.810580,  3.144848,  5.993703 )     0.43042720
  WF centre and spread   60  (  2.406489,  0.864518,  4.642167 )     1.18365230
  WF centre and spread   61  ( -0.341248,  2.680963,  3.032677 )     3.71979975
  WF centre and spread   62  ( -0.514187,  2.453143,  1.706067 )     1.41405742
  WF centre and spread   63  ( -0.249386,  1.747534,  5.075629 )     9.11823665
  WF centre and spread   64  (  1.970686,  1.162852,  5.071878 )     1.83042631
  Sum of centres and spreads ( 61.275686, 95.880207,206.202375 )   226.96630844
 
    100    -0.965E-02     0.7808873087      226.9663046519    1450.89  <-- CONV
        O_D=      1.9352923 O_OD=    114.9983841 O_TOT=    226.9663047 <-- SPRD
 Delta: O_D= -0.6642172E-02 O_OD= -0.3009308E-02 O_TOT= -0.9651480E-02 <-- DLTA
 ------------------------------------------------------------------------------

 Writing checkpoint file wannier90.chk... done

 Final State
  WF centre and spread    1  (  1.603343,  0.489882,  4.509316 )     1.51669027
  WF centre and spread    2  (  2.388543,  0.262380,  0.789160 )     2.25923516
  WF centre and spread    3  ( -1.681806,  2.868815,  0.421695 )     1.77024043
  WF centre and spread    4  (  2.684744,  0.056498,  5.887744 )     3.05869846
  WF centre and spread    5  (  1.603839,  1.559379,  4.504720 )     1.68286234
  WF centre and spread    6  (  0.680575,  0.644964,  2.026969 )     4.79609595
  WF centre and spread    7  (  0.189119,  1.967779,  0.936977 )     1.56489569
  WF centre and spread    8  (  0.159824,  1.986983,  2.033159 )     1.38128311
  WF centre and spread    9  (  0.541346,  0.717433,  5.147441 )     2.90967176
  WF centre and spread   10  ( -0.314993,  0.698238,  0.614025 )     2.24802843
  WF centre and spread   11  (  1.863713,  2.735778,  0.452280 )     3.99680797
  WF centre and spread   12  (  0.060147,  2.636877,  1.115473 )     1.29828606
  WF centre and spread   13  (  2.249591,  1.542696,  3.197569 )    14.51900724
  WF centre and spread   14  (  1.833811,  2.282535,  5.680031 )     1.90412633
  WF centre and spread   15  ( -1.032937,  2.934702,  0.350633 )     1.68898736
  WF centre and spread   16  (  0.606981,  2.147508,  4.568215 )     3.86533189
  WF centre and spread   17  (  0.134850,  1.602272,  1.482889 )     1.68844060
  WF centre and spread   18  (  0.061021,  0.768185,  4.510322 )     4.86302160
  WF centre and spread   19  (  1.187797,  2.672202,  4.019083 )     4.14711140
  WF centre and spread   20  (  2.992816,  0.685568,  5.800784 )     2.32411694
  WF centre and spread   21  (  0.242205,  0.143971,  5.938438 )     1.52318184
  WF centre and spread   22  (  0.770439,  0.413964,  2.872048 )    13.51503048
  WF centre and spread   23  (  1.967774, -0.628374,  1.771200 )     1.67917962
  WF centre and spread   24  ( -1.696203,  2.829352,  5.041490 )     2.49138663
  WF centre and spread   25  (  1.427937,  2.077567,  2.081711 )     4.60494323
  WF centre and spread   26  (  0.062402, -0.140941,  1.234162 )     2.57256593
  WF centre and spread   27  ( -1.132460,  1.927383,  0.375563 )     5.18863673
  WF centre and spread   28  (  1.828381,  3.150459,  6.017419 )     0.52961717
  WF centre and spread   29  (  1.255266,  2.951485,  2.403103 )     5.29661616
  WF centre and spread   30  (  1.389451,  1.343782,  3.025649 )     5.98306498
  WF centre and spread   31  (  2.365898,  1.394986,  1.260932 )     4.64613998
  WF centre and spread   32  (  1.182901,  2.573750,  0.249529 )     2.21644954
  WF centre and spread   33  (  2.314967,  0.315749,  1.074696 )     4.60171941
  WF centre and spread   34  (  0.688127,  0.431770,  4.010122 )     3.89118059
  WF centre and spread   35  (  3.101394,  0.681764,  2.055395 )     3.79007300
  WF centre and spread   36  (  0.483786,  0.571458,  0.672342 )     2.05373802
  WF centre and spread   37  ( -0.561137,  2.004871,  1.201666 )     1.36290993
  WF centre and spread   38  (  2.042192,  1.023529,  3.999797 )     1.43938857
  WF centre and spread   39  (  0.001866,  0.021186,  6.006094 )     0.42808374
  WF centre and spread   40  (  1.278313,  1.268948,  0.040520 )     4.81437018
  WF centre and spread   41  (  0.046943,  2.249368,  5.804727 )     5.47909780
  WF centre and spread   42  (  1.294824,  1.343535,  1.190564 )     4.38713899
  WF centre and spread   43  (  1.730871,  1.104584,  4.651580 )     2.08098746
  WF centre and spread   44  (  2.804903,  0.642180,  3.308045 )     3.51124675
  WF centre and spread   45  ( -1.272304,  3.292661,  5.127951 )     7.94107256
  WF centre and spread   46  (  2.978595,  1.788545,  3.540589 )     6.45821170
  WF centre and spread   47  (  0.579853,  1.806968,  3.409266 )     4.30226701
  WF centre and spread   48  (  2.434730,  0.663813,  2.298531 )     8.11441947
  WF centre and spread   49  (  0.226258,  0.984448,  5.935293 )     2.57561697
  WF centre and spread   50  ( -0.238620,  2.526710,  4.723882 )     8.35238579
  WF centre and spread   51  (  1.654483,  0.873164,  4.055085 )     4.90686665
  WF centre and spread   52  ( -1.102240,  2.859809,  5.536594 )     2.11598953
  WF centre and spread   53  (  0.588925,  2.125689,  1.430343 )     1.43057912
  WF centre and spread   54  (  1.470570,  0.806907,  5.035816 )     2.04001635
  WF centre and spread   55  (  1.938283,  2.073331,  4.047818 )     4.14936076
  WF centre and spread   56  (  1.451214,  1.272950,  4.209519 )     1.80385572
  WF centre and spread   57  ( -0.355896,  1.767746,  1.743638 )     1.71463596
  WF centre and spread   58  (  3.135536,  0.026610,  5.250649 )     1.79474548
  WF centre and spread   59  (  1.810580,  3.144848,  5.993703 )     0.43042720
  WF centre and spread   60  (  2.406489,  0.864518,  4.642167 )     1.18365230
  WF centre and spread   61  ( -0.341248,  2.680963,  3.032677 )     3.71979975
  WF centre and spread   62  ( -0.514187,  2.453143,  1.706067 )     1.41405742
  WF centre and spread   63  ( -0.249386,  1.747534,  5.075629 )     9.11823665
  WF centre and spread   64  (  1.970686,  1.162852,  5.071878 )     1.83042631
  Sum of centres and spreads ( 61.275686, 95.880207,206.202375 )   226.96630844
 
         Spreads (Ang^2)       Omega I      =   110.032628303
        ================       Omega D      =     1.935292265
                               Omega OD     =   114.998384083
    Final Spread (Ang^2)       Omega Total  =   226.966304652
 ------------------------------------------------------------------------------
 Time for wannierise         1432.512 (sec)

 Writing checkpoint file wannier90.chk... done

 *---------------------------------------------------------------------------*
 |                               PLOTTING                                    |
 *---------------------------------------------------------------------------*
 
 
 Calculating interpolated band-structure
 
 Time to calculate interpolated band structure      25.632 (sec)
 
 Time for plotting             26.040 (sec)
 Total Execution Time        1481.328 (sec)

 *===========================================================================*
 |                             TIMING INFORMATION                            |
 *===========================================================================*
 |    Tag                                                Ncalls      Time (s)|
 |---------------------------------------------------------------------------|
 |kmesh: get                                        :         1         0.084|
 |overlap: read                                     :         1        21.224|
 |wann: main                                        :         1      1432.512|
 |plot: main                                        :         1        26.040|
 *---------------------------------------------------------------------------*
 
 All done: wannier90 exiting
