       N       E                     dE             d eps       ncg     rms          rms(c)
DIA:   1    -0.133480108336E+02   -0.13348E+02    0.00000E+00     0   0.000E+00    0.166E-05
DIA:   2    -0.133480108320E+02    0.16216E-08    0.00000E+00     0   0.000E+00    0.848E-06
DIA:   3    -0.133480108308E+02    0.12164E-08    0.00000E+00     0   0.000E+00    0.209E-06
DIA:   4    -0.133480108310E+02   -0.23556E-09    0.00000E+00     0   0.000E+00    0.635E-07
DIA:   5    -0.133480108312E+02   -0.16917E-09    0.00000E+00     0   0.000E+00
   1 F= -.13348011E+02 E0= -.13348011E+02  d E =0.000000E+00
 imaginary and real dielectric function
