 vasp.5.4.1 24Jun15 (build Feb 06 2016 13:21:38) complex                        
  
 executed on             IFC_2016 date 2016.10.30  10:54:15
 running on   32 total cores
 distrk:  each k-point on    8 cores,    4 groups
 distr:  one band on NCORES_PER_BAND=   8 cores,    1 groups


--------------------------------------------------------------------------------------------------------


 INCAR:
 POTCAR:   PAW_PBE Sn_d 06Sep2000                 
 POTCAR:    PAW_PBE S 17Jan2003                   

 ----------------------------------------------------------------------------- 
|                                                                             |
|           W    W    AA    RRRRR   N    N  II  N    N   GGGG   !!!           |
|           W    W   A  A   R    R  NN   N  II  NN   N  G    G  !!!           |
|           W    W  A    A  R    R  N N  N  II  N N  N  G       !!!           |
|           W WW W  AAAAAA  RRRRR   N  N N  II  N  N N  G  GGG   !            |
|           WW  WW  A    A  R   R   N   NN  II  N   NN  G    G                |
|           W    W  A    A  R    R  N    N  II  N    N   GGGG   !!!           |
|                                                                             |
|      You have enabled k-point parallelism (KPAR>1).                         |
|      This developmental code was originally  written by Paul Kent at ORNL,  |
|      and carefully double checked in Vienna.                                |
|      GW as well as linear response parallelism added by Martijn Marsman     |
|      and Georg Kresse.                                                      |
|      Carefully verify results versus KPAR=1.                                |
|      Report problems to Paul Kent and Vienna.                               |
|                                                                             |
 ----------------------------------------------------------------------------- 

 POTCAR:   PAW_PBE Sn_d 06Sep2000                 
   VRHFIN =Sn: s2p2                                                             
   LEXCH  = PE                                                                  
   EATOM  =  1893.0782 eV,  139.1373 Ry                                         
                                                                                
   TITEL  = PAW_PBE Sn_d 06Sep2000                                              
   LULTRA =        F    use ultrasoft PP ?                                      
   IUNSCR =        1    unscreen: 0-lin 1-nonlin 2-no                           
   RPACOR =    2.300    partial core radius                                     
   POMASS =  118.710; ZVAL   =   14.000    mass and valenz                      
   RCORE  =    2.500    outmost cutoff radius                                   
   RWIGS  =    2.960; RWIGS  =    1.566    wigner-seitz radius (au A)           
   ENMAX  =  241.090; ENMIN  =  180.817 eV                                      
   ICORE  =        3    local potential                                         
   LCOR   =        T    correct aug charges                                     
   LPAW   =        T    paw PP                                                  
   EAUG   =  439.825                                                            
   DEXC   =    -.001                                                            
   RMAX   =    2.969    core radius for proj-oper                               
   RAUG   =    1.300    factor for augmentation sphere                          
   RDEP   =    2.659    radius for radial grids                                 
   QCUT   =   -4.209; QGAM   =    8.419    optimization parameters              
                                                                                
   Description                                                                  
     l     E      TYP  RCUT    TYP  RCUT                                        
     2   .000     23  2.500                                                     
     2  -.400     23  2.500                                                     
     0   .000     23  2.500                                                     
     0  1.000     23  2.500                                                     
     1   .000     23  2.500                                                     
     1   .000     23  2.500                                                     
     3  -.100      7  2.500                                                     
  local pseudopotential read in
  partial core-charges read in
  atomic valenz-charges read in
  non local Contribution for L=           2  read in
    real space projection operators read in
  non local Contribution for L=           2  read in
    real space projection operators read in
  non local Contribution for L=           0  read in
    real space projection operators read in
  non local Contribution for L=           0  read in
    real space projection operators read in
  non local Contribution for L=           1  read in
    real space projection operators read in
  non local Contribution for L=           1  read in
    real space projection operators read in
    PAW grid and wavefunctions read in
 
   number of l-projection  operators is LMAX  =           6
   number of lm-projection operators is LMMAX =          18
 
 POTCAR:    PAW_PBE S 17Jan2003                   
   VRHFIN =S : s2p4                                                             
   LEXCH  = PE                                                                  
   EATOM  =   276.8230 eV,   20.3459 Ry                                         
                                                                                
   TITEL  = PAW_PBE S 17Jan2003                                                 
   LULTRA =        F    use ultrasoft PP ?                                      
   IUNSCR =        1    unscreen: 0-lin 1-nonlin 2-no                           
   RPACOR =    1.500    partial core radius                                     
   POMASS =   32.066; ZVAL   =    6.000    mass and valenz                      
   RCORE  =    1.900    outmost cutoff radius                                   
   RWIGS  =    2.200; RWIGS  =    1.164    wigner-seitz radius (au A)           
   ENMAX  =  280.000; ENMIN  =  194.016 eV                                      
   ICORE  =        2    local potential                                         
   LCOR   =        T    correct aug charges                                     
   LPAW   =        T    paw PP                                                  
   EAUG   =  335.092                                                            
   DEXC   =     .000                                                            
   RMAX   =    2.867    core radius for proj-oper                               
   RAUG   =    1.300    factor for augmentation sphere                          
   RDEP   =    1.954    radius for radial grids                                 
   QCUT   =   -4.360; QGAM   =    8.721    optimization parameters              
                                                                                
   Description                                                                  
     l     E      TYP  RCUT    TYP  RCUT                                        
     0   .000     23  1.900                                                     
     0   .000     23  1.900                                                     
     1   .000     23  1.900                                                     
     1   .000     23  1.900                                                     
     2   .000     23  1.900                                                     
  local pseudopotential read in
  partial core-charges read in
  atomic valenz-charges read in
  non local Contribution for L=           0  read in
    real space projection operators read in
  non local Contribution for L=           0  read in
    real space projection operators read in
  non local Contribution for L=           1  read in
    real space projection operators read in
  non local Contribution for L=           1  read in
    real space projection operators read in
    PAW grid and wavefunctions read in
 
   number of l-projection  operators is LMAX  =           4
   number of lm-projection operators is LMMAX =           8
 
 PAW_PBE Sn_d 06Sep2000                 :
 energy of atom  1       EATOM=-1893.0782
 kinetic energy error for atom=    0.0047 (will be added to EATOM!!)
  PAW_PBE S 17Jan2003                   :
 energy of atom  2       EATOM= -276.8230
 kinetic energy error for atom=    0.0046 (will be added to EATOM!!)
 
 
 POSCAR: SnS2                                    
  positions in direct lattice
  velocities in cartesian coordinates
 exchange correlation table for  LEXCH =        8
   RHO(1)=    0.500       N(1)  =     2000
   RHO(2)=  100.500       N(2)  =     4000
 


--------------------------------------------------------------------------------------------------------


 ion  position               nearest neighbor table
   1  0.000  0.000  0.000-   3 2.57   2 2.57   3 2.57   3 2.57   2 2.57   2 2.57
   2  0.333  0.667  0.245-   1 2.57   1 2.57   1 2.57
   3  0.667  0.333  0.755-   1 2.57   1 2.57   1 2.57
 
  LATTYP: Found a hexagonal cell.
 ALAT       =     3.6510002172
 C/A-ratio  =     1.6474937393
  
  Lattice vectors:
  
 A1 = (   3.6510000000,   0.0000000000,   0.0000000000)
 A2 = (  -1.8255000000,   3.1618590000,   0.0000000000)
 A3 = (   0.0000000000,   0.0000000000,   6.0150000000)


Analysis of symmetry for initial positions (statically):
=====================================================================
 Subroutine PRICEL returns:
 Original cell was already a primitive cell.
 

 Routine SETGRP: Setting up the symmetry group for a 
 hexagonal supercell.


 Subroutine GETGRP returns: Found 12 space group operations
 (whereof 12 operations were pure point group operations)
 out of a pool of 24 trial point group operations.


The static configuration has the point symmetry D_3d.


Analysis of symmetry for dynamics (positions and initial velocities):
=====================================================================
 Subroutine PRICEL returns:
 Original cell was already a primitive cell.
 

 Routine SETGRP: Setting up the symmetry group for a 
 hexagonal supercell.


 Subroutine GETGRP returns: Found 12 space group operations
 (whereof 12 operations were pure point group operations)
 out of a pool of 24 trial point group operations.


The dynamic configuration has the point symmetry D_3d.


 Subroutine INISYM returns: Found 12 space group operations
 (whereof 12 operations are pure point group operations),
 and found     1 'primitive' translations

 
 
 KPOINTS: Automatic 6x6x6                         

Automatic generation of k-mesh.
Space group operators:
 irot       det(A)        alpha          n_x          n_y          n_z        tau_x        tau_y        tau_z
    1     1.000000     0.000000     1.000000     0.000000     0.000000     0.000000     0.000000     0.000000
    2    -1.000000     0.000000     1.000000     0.000000     0.000000     0.000000     0.000000     0.000000
    3     1.000000   120.000000     0.000000     0.000000    -1.000000     0.000000     0.000000     0.000000
    4    -1.000000   120.000000     0.000000     0.000000    -1.000000     0.000000     0.000000     0.000000
    5     1.000000   120.000000     0.000000     0.000000     1.000000     0.000000     0.000000     0.000000
    6    -1.000000   120.000000     0.000000     0.000000     1.000000     0.000000     0.000000     0.000000
    7     1.000000   180.000000     1.000000     0.000000     0.000000     0.000000     0.000000     0.000000
    8    -1.000000   180.000000     1.000000     0.000000     0.000000     0.000000     0.000000     0.000000
    9     1.000000   180.000000     0.500000    -0.866025     0.000000     0.000000     0.000000     0.000000
   10    -1.000000   180.000000     0.500000    -0.866025     0.000000     0.000000     0.000000     0.000000
   11     1.000000   180.000000    -0.500000    -0.866025     0.000000     0.000000     0.000000     0.000000
   12    -1.000000   180.000000    -0.500000    -0.866025     0.000000     0.000000     0.000000     0.000000
 
 Subroutine IBZKPT returns following result:
 ===========================================
 
 Found     34 irreducible k-points:
 
 Following reciprocal coordinates:
            Coordinates               Weight
  0.000000  0.000000  0.000000      1.000000
  0.166667 -0.000000  0.000000      6.000000
  0.333333  0.000000  0.000000      6.000000
  0.500000 -0.000000  0.000000      3.000000
  0.166667  0.166667  0.000000      6.000000
  0.333333  0.166667  0.000000     12.000000
  0.333333  0.333333  0.000000      2.000000
  0.000000  0.000000  0.166667      2.000000
  0.166667 -0.000000  0.166667      6.000000
  0.333333  0.000000  0.166667      6.000000
  0.500000 -0.000000  0.166667      6.000000
 -0.333333 -0.000000  0.166667      6.000000
 -0.166667  0.000000  0.166667      6.000000
  0.166667  0.166667  0.166667     12.000000
  0.333333  0.166667  0.166667     12.000000
  0.500000  0.166667  0.166667     12.000000
  0.333333  0.333333  0.166667      4.000000
  0.000000  0.000000  0.333333      2.000000
  0.166667 -0.000000  0.333333      6.000000
  0.333333  0.000000  0.333333      6.000000
  0.500000 -0.000000  0.333333      6.000000
 -0.333333 -0.000000  0.333333      6.000000
 -0.166667  0.000000  0.333333      6.000000
  0.166667  0.166667  0.333333     12.000000
  0.333333  0.166667  0.333333     12.000000
  0.500000  0.166667  0.333333     12.000000
  0.333333  0.333333  0.333333      4.000000
  0.000000  0.000000  0.500000      1.000000
  0.166667 -0.000000  0.500000      6.000000
  0.333333  0.000000  0.500000      6.000000
  0.500000 -0.000000  0.500000      3.000000
  0.166667  0.166667  0.500000      6.000000
  0.333333  0.166667  0.500000     12.000000
  0.333333  0.333333  0.500000      2.000000
 
 Following cartesian coordinates:
            Coordinates               Weight
  0.000000  0.000000  0.000000      1.000000
  0.045650  0.026356  0.000000      6.000000
  0.091299  0.052712  0.000000      6.000000
  0.136949  0.079067  0.000000      3.000000
  0.045650  0.079067  0.000000      6.000000
  0.091299  0.105423  0.000000     12.000000
  0.091299  0.158135  0.000000      2.000000
  0.000000  0.000000  0.027709      2.000000
  0.045650  0.026356  0.027709      6.000000
  0.091299  0.052712  0.027709      6.000000
  0.136949  0.079067  0.027709      6.000000
 -0.091299 -0.052712  0.027709      6.000000
 -0.045650 -0.026356  0.027709      6.000000
  0.045650  0.079067  0.027709     12.000000
  0.091299  0.105423  0.027709     12.000000
  0.136949  0.131779  0.027709     12.000000
  0.091299  0.158135  0.027709      4.000000
  0.000000  0.000000  0.055417      2.000000
  0.045650  0.026356  0.055417      6.000000
  0.091299  0.052712  0.055417      6.000000
  0.136949  0.079067  0.055417      6.000000
 -0.091299 -0.052712  0.055417      6.000000
 -0.045650 -0.026356  0.055417      6.000000
  0.045650  0.079067  0.055417     12.000000
  0.091299  0.105423  0.055417     12.000000
  0.136949  0.131779  0.055417     12.000000
  0.091299  0.158135  0.055417      4.000000
  0.000000  0.000000  0.083126      1.000000
  0.045650  0.026356  0.083126      6.000000
  0.091299  0.052712  0.083126      6.000000
  0.136949  0.079067  0.083126      3.000000
  0.045650  0.079067  0.083126      6.000000
  0.091299  0.105423  0.083126     12.000000
  0.091299  0.158135  0.083126      2.000000
 
 TETIRR: Found    281 inequivalent tetrahedra from     1296


--------------------------------------------------------------------------------------------------------




 Dimension of arrays:
   k-points           NKPTS =     34   k-points in BZ     NKDIM =     34   number of bands    NBANDS=     64
   number of dos      NEDOS =    301   number of ions     NIONS =      3
   non local maximal  LDIM  =      6   non local SUM 2l+1 LMDIM =     18
   total plane-waves  NPLWV =  23040
   max r-space proj   IRMAX =      1   max aug-charges    IRDMAX=  15016
   dimension x,y,z NGX =    24 NGY =   24 NGZ =   40
   dimension x,y,z NGXF=    48 NGYF=   48 NGZF=   80
   support grid    NGXF=    48 NGYF=   48 NGZF=   80
   ions per type =               1   2
 NGX,Y,Z   is equivalent  to a cutoff of  10.93, 10.93, 11.06 a.u.
 NGXF,Y,Z  is equivalent  to a cutoff of  21.86, 21.86, 22.11 a.u.


 I would recommend the setting:
   dimension x,y,z NGX =    24 NGY =   24 NGZ =   39
 SYSTEM =  SnS2                                    
 POSCAR =  SnS2                                    

 Startparameter for this run:
   NWRITE =      2    write-flag & timer
   PREC   = accura    normal or accurate (medium, high low for compatibility)
   ISTART =      1    job   : 0-new  1-cont  2-samecut
   ICHARG =      0    charge: 1-file 2-atom 10-const
   ISPIN  =      1    spin polarized calculation?
   LNONCOLLINEAR =      F non collinear calculations
   LSORBIT =      F    spin-orbit coupling
   INIWAV =      1    electr: 0-lowe 1-rand  2-diag
   LASPH  =      T    aspherical Exc in radial PAW
   METAGGA=      F    non-selfconsistent MetaGGA calc.

 Electronic Relaxation 1
   ENCUT  =  400.0 eV  29.40 Ry    5.42 a.u.   5.95  5.95  9.81*2*pi/ulx,y,z
   ENINI  =  400.0     initial cutoff
   ENAUG  =  439.8 eV  augmentation charge cutoff
   NELM   =     60;   NELMIN=  5; NELMDL=  0     # of ELM steps 
   EDIFF  = 0.1E-07   stopping-criterion for ELM
   LREAL  =      F    real-space projection
   NLSPLINE    = F    spline interpolate recip. space projectors
   LCOMPAT=      F    compatible to vasp.4.4
   GGA_COMPAT  = T    GGA compatible to vasp.4.4-vasp.4.6
   LMAXPAW     = -100 max onsite density
   LMAXMIX     =    2 max onsite mixed and CHGCAR
   VOSKOWN=      0    Vosko Wilk Nusair interpolation
   ROPT   =    0.00000   0.00000
 Ionic relaxation
   EDIFFG = 0.1E-06   stopping-criterion for IOM
   NSW    =      0    number of steps for IOM
   NBLOCK =      1;   KBLOCK =      1    inner block; outer block 
   IBRION =     -1    ionic relax: 0-MD 1-quasi-New 2-CG
   NFREE  =      0    steps in history (QN), initial steepest desc. (CG)
   ISIF   =      2    stress and relaxation
   IWAVPR =     10    prediction:  0-non 1-charg 2-wave 3-comb
   ISYM   =      2    0-nonsym 1-usesym 2-fastsym
   LCORR  =      T    Harris-Foulkes like correction to forces

   POTIM  = 0.5000    time-step for ionic-motion
   TEIN   =    0.0    initial temperature
   TEBEG  =    0.0;   TEEND  =   0.0 temperature during run
   SMASS  =  -3.00    Nose mass-parameter (am)
   estimated Nose-frequenzy (Omega)   =  0.10E-29 period in steps =****** mass=  -0.305E-27a.u.
   SCALEE = 1.0000    scale energy and forces
   NPACO  =    256;   APACO  = 16.0  distance and # of slots for P.C.
   PSTRESS=    0.0 pullay stress

  Mass of Ions in am
   POMASS = 118.71 32.07
  Ionic Valenz
   ZVAL   =  14.00  6.00
  Atomic Wigner-Seitz radii
   RWIGS  =  -1.00 -1.00
  virtual crystal weights 
   VCA    =   1.00  1.00
   NELECT =      26.0000    total number of electrons
   NUPDOWN=      -1.0000    fix difference up-down

 DOS related values:
   EMIN   =  10.00;   EMAX   =-10.00  energy-range for DOS
   EFERMI =   0.00
   ISMEAR =    -5;   SIGMA  =   0.20  broadening in eV -4-tet -1-fermi 0-gaus

 Electronic relaxation 2 (details)
   IALGO  =     90    algorithm
   LDIAG  =      T    sub-space diagonalisation (order eigenvalues)
   LSUBROT=      F    optimize rotation matrix (better conditioning)
   TURBO    =      0    0=normal 1=particle mesh
   IRESTART =      0    0=no restart 2=restart with 2 vectors
   NREBOOT  =      0    no. of reboots
   NMIN     =      0    reboot dimension
   EREF     =   0.00    reference energy to select bands
   IMIX   =      4    mixing-type and parameters
     AMIX     =   0.40;   BMIX     =  1.00
     AMIX_MAG =   1.60;   BMIX_MAG =  1.00
     AMIN     =   0.10
     WC   =   100.;   INIMIX=   1;  MIXPRE=   1;  MAXMIX= -45

 Intra band minimization:
   WEIMIN = 0.0000     energy-eigenvalue tresh-hold
   EBREAK =  0.39E-10  absolut break condition
   DEPER  =   0.30     relativ break condition  

   TIME   =   0.40     timestep for ELM

  volume/ion in A,a.u.               =      23.15       156.19
  Fermi-wavevector in a.u.,A,eV,Ry     =   1.179965  2.229811 18.943643  1.392318
  Thomas-Fermi vector in A             =   2.316267
 
 Write flags
   LWAVE  =      T    write WAVECAR
   LCHARG =      T    write CHGCAR
   LVTOT  =      F    write LOCPOT, total local potential
   LVHAR  =      F    write LOCPOT, Hartree potential only
   LELF   =      F    write electronic localiz. function (ELF)
   LORBIT =      0    0 simple, 1 ext, 2 COOP (PROOUT)


 Dipole corrections
   LMONO  =      F    monopole corrections only (constant potential shift)
   LDIPOL =      F    correct potential (dipole corrections)
   IDIPOL =      0    1-x, 2-y, 3-z, 4-all directions 
   EPSILON=  1.0000000 bulk dielectric constant

 Exchange correlation treatment:
   GGA     =    PE    GGA type
   LEXCH   =     8    internal setting for exchange type
   VOSKOWN=      0    Vosko Wilk Nusair interpolation
   LHFCALC =     F    Hartree Fock is set to
   LHFONE  =     F    Hartree Fock one center treatment
   AEXX    =    0.0000 exact exchange contribution

 Linear response parameters
   LEPSILON=     F    determine dielectric tensor
   LRPA    =     F    only Hartree local field effects (RPA)
   LNABLA  =     F    use nabla operator in PAW spheres
   LVEL    =     F    velocity operator in full k-point grid
   LINTERFAST=   F  fast interpolation
   KINTER  =     0    interpolate to denser k-point grid
   CSHIFT  =0.1000    complex shift for real part using Kramers Kronig
   OMEGAMAX=  -1.0    maximum frequency
   DEG_THRESHOLD= 0.2000000E-02 threshold for treating states as degnerate
   RTIME   =    0.100 relaxation time in fs

 Orbital magnetization related:
   ORBITALMAG=     F  switch on orbital magnetization
   LCHIMAG   =     F  perturbation theory with respect to B field
   DQ        =  0.001000  dq finite difference perturbation B field



--------------------------------------------------------------------------------------------------------


 Static calculation
 charge density and potential will be updated during run
 non-spin polarized calculation
 Exact diagonalization
 preconditioned conjugated gradient (Jacobi prec)
    charged. constant during bandupdate  
    band-by band algorithm
 perform sub-space diagonalisation
    after iterative eigenvector-optimisation
 modified Broyden-mixing scheme, WC =      100.0
 initial mixing is a Kerker type mixing with AMIX =  0.4000 and BMIX =      1.0000
 Hartree-type preconditioning will be used
 using additional bands           51
 reciprocal scheme for non local part
 use partial core corrections
 calculate Harris-corrections to forces 
   (improved forces if not selfconsistent)
 use gradient corrections 
 use of overlap-Matrix (Vanderbilt PP)
 Fermi weights with tetrahedron method with Bloechl corrections


--------------------------------------------------------------------------------------------------------


  energy-cutoff  :      400.00
  volume of cell :       69.44
      direct lattice vectors                 reciprocal lattice vectors
     3.651000000  0.000000000  0.000000000     0.273897562  0.158134819  0.000000000
    -1.825500000  3.161859000  0.000000000     0.000000000  0.316269638  0.000000000
     0.000000000  0.000000000  6.015000000     0.000000000  0.000000000  0.166251039

  length of vectors
     3.651000000  3.651000217  6.015000000     0.316269656  0.316269638  0.166251039


 
 old parameters found on file WAVECAR:
  energy-cutoff  :      400.00
  volume of cell :       69.44
      direct lattice vectors                 reciprocal lattice vectors
     3.651000000  0.000000000  0.000000000     0.273897562  0.158134819  0.000000000
    -1.825500000  3.161859000  0.000000000     0.000000000  0.316269638  0.000000000
     0.000000000  0.000000000  6.015000000     0.000000000  0.000000000  0.166251039

  length of vectors

 
 k-points in units of 2pi/SCALE and weight: Automatic 6x6x6                         
   0.00000000  0.00000000  0.00000000       0.005
   0.04564959  0.02635580  0.00000000       0.028
   0.09129919  0.05271161  0.00000000       0.028
   0.13694878  0.07906741  0.00000000       0.014
   0.04564959  0.07906741  0.00000000       0.028
   0.09129919  0.10542321  0.00000000       0.056
   0.09129919  0.15813482  0.00000000       0.009
   0.00000000  0.00000000  0.02770851       0.009
   0.04564959  0.02635580  0.02770851       0.028
   0.09129919  0.05271161  0.02770851       0.028
   0.13694878  0.07906741  0.02770851       0.028
  -0.09129919 -0.05271161  0.02770851       0.028
  -0.04564959 -0.02635580  0.02770851       0.028
   0.04564959  0.07906741  0.02770851       0.056
   0.09129919  0.10542321  0.02770851       0.056
   0.13694878  0.13177902  0.02770851       0.056
   0.09129919  0.15813482  0.02770851       0.019
   0.00000000  0.00000000  0.05541701       0.009
   0.04564959  0.02635580  0.05541701       0.028
   0.09129919  0.05271161  0.05541701       0.028
   0.13694878  0.07906741  0.05541701       0.028
  -0.09129919 -0.05271161  0.05541701       0.028
  -0.04564959 -0.02635580  0.05541701       0.028
   0.04564959  0.07906741  0.05541701       0.056
   0.09129919  0.10542321  0.05541701       0.056
   0.13694878  0.13177902  0.05541701       0.056
   0.09129919  0.15813482  0.05541701       0.019
   0.00000000  0.00000000  0.08312552       0.005
   0.04564959  0.02635580  0.08312552       0.028
   0.09129919  0.05271161  0.08312552       0.028
   0.13694878  0.07906741  0.08312552       0.014
   0.04564959  0.07906741  0.08312552       0.028
   0.09129919  0.10542321  0.08312552       0.056
   0.09129919  0.15813482  0.08312552       0.009
 
 k-points in reciprocal lattice and weights: Automatic 6x6x6                         
   0.00000000  0.00000000  0.00000000       0.005
   0.16666667 -0.00000000  0.00000000       0.028
   0.33333333  0.00000000  0.00000000       0.028
   0.50000000 -0.00000000  0.00000000       0.014
   0.16666667  0.16666667  0.00000000       0.028
   0.33333333  0.16666667  0.00000000       0.056
   0.33333333  0.33333333  0.00000000       0.009
   0.00000000  0.00000000  0.16666667       0.009
   0.16666667 -0.00000000  0.16666667       0.028
   0.33333333  0.00000000  0.16666667       0.028
   0.50000000 -0.00000000  0.16666667       0.028
  -0.33333333 -0.00000000  0.16666667       0.028
  -0.16666667  0.00000000  0.16666667       0.028
   0.16666667  0.16666667  0.16666667       0.056
   0.33333333  0.16666667  0.16666667       0.056
   0.50000000  0.16666667  0.16666667       0.056
   0.33333333  0.33333333  0.16666667       0.019
   0.00000000  0.00000000  0.33333333       0.009
   0.16666667 -0.00000000  0.33333333       0.028
   0.33333333  0.00000000  0.33333333       0.028
   0.50000000 -0.00000000  0.33333333       0.028
  -0.33333333 -0.00000000  0.33333333       0.028
  -0.16666667  0.00000000  0.33333333       0.028
   0.16666667  0.16666667  0.33333333       0.056
   0.33333333  0.16666667  0.33333333       0.056
   0.50000000  0.16666667  0.33333333       0.056
   0.33333333  0.33333333  0.33333333       0.019
   0.00000000  0.00000000  0.50000000       0.005
   0.16666667 -0.00000000  0.50000000       0.028
   0.33333333  0.00000000  0.50000000       0.028
   0.50000000 -0.00000000  0.50000000       0.014
   0.16666667  0.16666667  0.50000000       0.028
   0.33333333  0.16666667  0.50000000       0.056
   0.33333333  0.33333333  0.50000000       0.009
 
 position of ions in fractional coordinates (direct lattice) 
   0.00000000  0.00000000  0.00000000
   0.33333300  0.66666600  0.24520076
   0.66666600  0.33333300  0.75479994
 
 position of ions in cartesian coordinates  (Angst):
   0.00000000  0.00000000  0.00000000
   0.00000000  2.10790389  1.47488259
   1.82549817  1.05395195  4.54012162
 


--------------------------------------------------------------------------------------------------------


 k-point  1 :   0.0000 0.0000 0.0000  plane waves:    1273
 k-point  2 :   0.1667-0.0000 0.0000  plane waves:    1248
 k-point  3 :   0.3333 0.0000 0.0000  plane waves:    1266
 k-point  4 :   0.5000-0.0000 0.0000  plane waves:    1244
 k-point  5 :   0.1667 0.1667 0.0000  plane waves:    1266
 k-point  6 :   0.3333 0.1667 0.0000  plane waves:    1262
 k-point  7 :   0.3333 0.3333 0.0000  plane waves:    1254
 k-point  8 :   0.0000 0.0000 0.1667  plane waves:    1261
 k-point  9 :   0.1667-0.0000 0.1667  plane waves:    1251
 k-point 10 :   0.3333 0.0000 0.1667  plane waves:    1259
 k-point 11 :   0.5000-0.0000 0.1667  plane waves:    1264
 k-point 12 :  -0.3333-0.0000 0.1667  plane waves:    1259
 k-point 13 :  -0.1667 0.0000 0.1667  plane waves:    1251
 k-point 14 :   0.1667 0.1667 0.1667  plane waves:    1262
 k-point 15 :   0.3333 0.1667 0.1667  plane waves:    1265
 k-point 16 :   0.5000 0.1667 0.1667  plane waves:    1265
 k-point 17 :   0.3333 0.3333 0.1667  plane waves:    1266
 k-point 18 :   0.0000 0.0000 0.3333  plane waves:    1232
 k-point 19 :   0.1667-0.0000 0.3333  plane waves:    1247
 k-point 20 :   0.3333 0.0000 0.3333  plane waves:    1257
 k-point 21 :   0.5000-0.0000 0.3333  plane waves:    1274
 k-point 22 :  -0.3333-0.0000 0.3333  plane waves:    1257
 k-point 23 :  -0.1667 0.0000 0.3333  plane waves:    1247
 k-point 24 :   0.1667 0.1667 0.3333  plane waves:    1255
 k-point 25 :   0.3333 0.1667 0.3333  plane waves:    1271
 k-point 26 :   0.5000 0.1667 0.3333  plane waves:    1271
 k-point 27 :   0.3333 0.3333 0.3333  plane waves:    1284
 k-point 28 :   0.0000 0.0000 0.5000  plane waves:    1208
 k-point 29 :   0.1667-0.0000 0.5000  plane waves:    1256
 k-point 30 :   0.3333 0.0000 0.5000  plane waves:    1260
 k-point 31 :   0.5000-0.0000 0.5000  plane waves:    1260
 k-point 32 :   0.1667 0.1667 0.5000  plane waves:    1264
 k-point 33 :   0.3333 0.1667 0.5000  plane waves:    1264
 k-point 34 :   0.3333 0.3333 0.5000  plane waves:    1290

 maximum and minimum number of plane-waves per node :       171      146

 maximum number of plane-waves:      1290
 maximum index in each direction: 
   IXMAX=    6   IYMAX=    5   IZMAX=    9
   IXMIN=   -6   IYMIN=   -6   IZMIN=  -10

 WARNING: aliasing errors must be expected set NGX to  26 to avoid them
 NGY is ok and might be reduce to  24
 NGZ is ok and might be reduce to  40
 aliasing errors are usually negligible using standard VASP settings
 and one can safely disregard these warnings

 parallel 3D FFT for wavefunctions:
    minimum data exchange during FFTs selected (reduces bandwidth)
 parallel 3D FFT for charge:
    minimum data exchange during FFTs selected (reduces bandwidth)


 total amount of memory used by VASP on root node    40178. kBytes
========================================================================

   base      :      30000. kBytes
   nonl-proj :       1594. kBytes
   fftplans  :        874. kBytes
   grid      :       1429. kBytes
   one-center:         15. kBytes
   wavefun   :       6266. kBytes
 
     INWAV:  cpu time    0.2200: real time    0.2215
 Broyden mixing: mesh for mixing (old mesh)
   NGX = 11   NGY = 11   NGZ = 19
  (NGX  = 48   NGY  = 48   NGZ  = 80)
  gives a total of   2299 points

 charge density for first step will be calculated from the start-wavefunctions


--------------------------------------------------------------------------------------------------------


 Maximum index for augmentation-charges         1753 (set IRDMAX)


--------------------------------------------------------------------------------------------------------


 initial charge from wavefunction
 First call to EWALD:  gamma=   0.431
 Maximum number of real-space cells 3x 3x 2
 Maximum number of reciprocal cells 2x 2x 4

 FEWALD executed in parallel
    FEWALD:  cpu time    0.0040: real time    0.0020


----------------------------------------- Iteration    1(   1)  ---------------------------------------


    POTLOK:  cpu time    0.0240: real time    0.0222
    SETDIJ:  cpu time    0.2200: real time    0.2216

 total amount of memory used by VASP on root node   166494. kBytes
========================================================================

   base      :      30000. kBytes
   nonl-proj :       1594. kBytes
   fftplans  :        874. kBytes
   grid      :       1429. kBytes
   one-center:         15. kBytes
   wavefun   :     132582. kBytes
 
    EDDIAG:  cpu time   24.8240: real time   24.8560
 BZINTS: Fermi energy:  4.504853; 26.000000 electrons
         Band energy:-172.800058;  BLOECHL correction:  0.000000
       DOS:  cpu time    0.0080: real time    0.0079
    CHARGE:  cpu time    0.0160: real time    0.0161
    MIXING:  cpu time    0.0000: real time    0.0007
    --------------------------------------------
      LOOP:  cpu time   25.0920: real time   25.1272

 eigenvalue-minimisations  :     0
 total energy-change (2. order) :-0.1334801E+02  ( 0.0000000E+00)
 number of electron      26.0000001 magnetization 
 augmentation part        5.8272361 magnetization 

 Broyden mixing:
  rms(total) = 0.16605E-05    rms(broyden)= 0.16603E-05
  rms(prec ) = 0.32029E-05
  weight for this iteration     100.00

 Free energy of the ion-electron system (eV)
  ---------------------------------------------------
  alpha Z        PSCENC =        48.70772351
  Ewald energy   TEWEN  =     -1558.36934594
  -Hartree energ DENC   =      -829.11897095
  -exchange      EXHF   =         0.00000000
  -V(xc)+E(xc)   XCENC  =        82.27311156
  PAW double counting   =      1621.29614694    -1652.04689043
  entropy T*S    EENTRO =         0.00000000
  eigenvalues    EBANDS =      -172.80005783
  atomic energy  EATOM  =      2446.71027231
  Solvation  Ediel_sol  =         0.00000000
  ---------------------------------------------------
  free energy    TOTEN  =       -13.34801083 eV

  energy without entropy =      -13.34801083  energy(sigma->0) =      -13.34801083


--------------------------------------------------------------------------------------------------------




----------------------------------------- Iteration    1(   2)  ---------------------------------------


    POTLOK:  cpu time    0.0200: real time    0.0205
    SETDIJ:  cpu time    0.2200: real time    0.2207

 total amount of memory used by VASP on root node   166494. kBytes
========================================================================

   base      :      30000. kBytes
   nonl-proj :       1594. kBytes
   fftplans  :        874. kBytes
   grid      :       1429. kBytes
   one-center:         15. kBytes
   wavefun   :     132582. kBytes
 
    EDDIAG:  cpu time   25.0640: real time   25.0769
 BZINTS: Fermi energy:  4.504851; 26.000000 electrons
         Band energy:-172.800109;  BLOECHL correction:  0.000000
       DOS:  cpu time    0.0120: real time    0.0095
    CHARGE:  cpu time    0.0160: real time    0.0161
    MIXING:  cpu time    0.0000: real time    0.0009
    --------------------------------------------
      LOOP:  cpu time   25.3320: real time   25.3458

 eigenvalue-minimisations  :     0
 total energy-change (2. order) : 0.1621629E-08  ( 0.0000000E+00)
 number of electron      26.0000001 magnetization 
 augmentation part        5.8272360 magnetization 

 Broyden mixing:
  rms(total) = 0.84755E-06    rms(broyden)= 0.84753E-06
  rms(prec ) = 0.16578E-05
  weight for this iteration     100.00

 eigenvalues of (default mixing * dielectric matrix)
  average eigenvalue GAMMA=   1.8727
  1.8727

 Free energy of the ion-electron system (eV)
  ---------------------------------------------------
  alpha Z        PSCENC =        48.70772351
  Ewald energy   TEWEN  =     -1558.36934594
  -Hartree energ DENC   =      -829.11892027
  -exchange      EXHF   =         0.00000000
  -V(xc)+E(xc)   XCENC  =        82.27310869
  PAW double counting   =      1621.29610428    -1652.04684462
  entropy T*S    EENTRO =         0.00000000
  eigenvalues    EBANDS =      -172.80010878
  atomic energy  EATOM  =      2446.71027231
  Solvation  Ediel_sol  =         0.00000000
  ---------------------------------------------------
  free energy    TOTEN  =       -13.34801083 eV

  energy without entropy =      -13.34801083  energy(sigma->0) =      -13.34801083


--------------------------------------------------------------------------------------------------------




----------------------------------------- Iteration    1(   3)  ---------------------------------------


    POTLOK:  cpu time    0.0200: real time    0.0206
    SETDIJ:  cpu time    0.2200: real time    0.2207

 total amount of memory used by VASP on root node   166494. kBytes
========================================================================

   base      :      30000. kBytes
   nonl-proj :       1594. kBytes
   fftplans  :        874. kBytes
   grid      :       1429. kBytes
   one-center:         15. kBytes
   wavefun   :     132582. kBytes
 
    EDDIAG:  cpu time   25.0600: real time   25.0729
 BZINTS: Fermi energy:  4.504849; 26.000000 electrons
         Band energy:-172.800161;  BLOECHL correction:  0.000000
       DOS:  cpu time    0.0080: real time    0.0083
    CHARGE:  cpu time    0.0160: real time    0.0170
    MIXING:  cpu time    0.0000: real time    0.0008
    --------------------------------------------
      LOOP:  cpu time   25.3240: real time   25.3414

 eigenvalue-minimisations  :     0
 total energy-change (2. order) : 0.1216449E-08  ( 0.0000000E+00)
 number of electron      26.0000001 magnetization 
 augmentation part        5.8272360 magnetization 

 Broyden mixing:
  rms(total) = 0.20901E-06    rms(broyden)= 0.20898E-06
  rms(prec ) = 0.36709E-06
  weight for this iteration     100.00

 eigenvalues of (default mixing * dielectric matrix)
  average eigenvalue GAMMA=   1.9677
  1.4792  2.4562

 Free energy of the ion-electron system (eV)
  ---------------------------------------------------
  alpha Z        PSCENC =        48.70772351
  Ewald energy   TEWEN  =     -1558.36934594
  -Hartree energ DENC   =      -829.11886920
  -exchange      EXHF   =         0.00000000
  -V(xc)+E(xc)   XCENC  =        82.27310608
  PAW double counting   =      1621.29606760    -1652.04680462
  entropy T*S    EENTRO =         0.00000000
  eigenvalues    EBANDS =      -172.80016056
  atomic energy  EATOM  =      2446.71027231
  Solvation  Ediel_sol  =         0.00000000
  ---------------------------------------------------
  free energy    TOTEN  =       -13.34801083 eV

  energy without entropy =      -13.34801083  energy(sigma->0) =      -13.34801083


--------------------------------------------------------------------------------------------------------




----------------------------------------- Iteration    1(   4)  ---------------------------------------


    POTLOK:  cpu time    0.0200: real time    0.0206
    SETDIJ:  cpu time    0.2200: real time    0.2207

 total amount of memory used by VASP on root node   166494. kBytes
========================================================================

   base      :      30000. kBytes
   nonl-proj :       1594. kBytes
   fftplans  :        874. kBytes
   grid      :       1429. kBytes
   one-center:         15. kBytes
   wavefun   :     132582. kBytes
 
    EDDIAG:  cpu time   24.7640: real time   24.7826
 BZINTS: Fermi energy:  4.504849; 26.000000 electrons
         Band energy:-172.800166;  BLOECHL correction:  0.000000
       DOS:  cpu time    0.0080: real time    0.0085
    CHARGE:  cpu time    0.0160: real time    0.0169
    MIXING:  cpu time    0.0000: real time    0.0008
    --------------------------------------------
      LOOP:  cpu time   25.0320: real time   25.0513

 eigenvalue-minimisations  :     0
 total energy-change (2. order) :-0.2355591E-09  ( 0.0000000E+00)
 number of electron      26.0000001 magnetization 
 augmentation part        5.8272359 magnetization 

 Broyden mixing:
  rms(total) = 0.63516E-07    rms(broyden)= 0.63515E-07
  rms(prec ) = 0.10353E-06
  weight for this iteration     100.00

 eigenvalues of (default mixing * dielectric matrix)
  average eigenvalue GAMMA=   1.8371
  1.2269  2.4129  1.8715

 Free energy of the ion-electron system (eV)
  ---------------------------------------------------
  alpha Z        PSCENC =        48.70772351
  Ewald energy   TEWEN  =     -1558.36934594
  -Hartree energ DENC   =      -829.11886254
  -exchange      EXHF   =         0.00000000
  -V(xc)+E(xc)   XCENC  =        82.27310573
  PAW double counting   =      1621.29607791    -1652.04681559
  entropy T*S    EENTRO =         0.00000000
  eigenvalues    EBANDS =      -172.80016621
  atomic energy  EATOM  =      2446.71027231
  Solvation  Ediel_sol  =         0.00000000
  ---------------------------------------------------
  free energy    TOTEN  =       -13.34801083 eV

  energy without entropy =      -13.34801083  energy(sigma->0) =      -13.34801083


--------------------------------------------------------------------------------------------------------




----------------------------------------- Iteration    1(   5)  ---------------------------------------


    POTLOK:  cpu time    0.0200: real time    0.0206
    SETDIJ:  cpu time    0.2240: real time    0.2206

 total amount of memory used by VASP on root node   166494. kBytes
========================================================================

   base      :      30000. kBytes
   nonl-proj :       1594. kBytes
   fftplans  :        874. kBytes
   grid      :       1429. kBytes
   one-center:         15. kBytes
   wavefun   :     132582. kBytes
 
    EDDIAG:  cpu time   24.7640: real time   24.7830
 BZINTS: Fermi energy:  4.504849; 26.000000 electrons
         Band energy:-172.800166;  BLOECHL correction:  0.000000
       DOS:  cpu time    0.0080: real time    0.0086
    --------------------------------------------
      LOOP:  cpu time   25.0160: real time   25.0339

 eigenvalue-minimisations  :     0
 total energy-change (2. order) :-0.1691660E-09  ( 0.0000000E+00)
 number of electron      26.0000001 magnetization 
 augmentation part        5.8272359 magnetization 

 Free energy of the ion-electron system (eV)
  ---------------------------------------------------
  alpha Z        PSCENC =        48.70772351
  Ewald energy   TEWEN  =     -1558.36934594
  -Hartree energ DENC   =      -829.11886234
  -exchange      EXHF   =         0.00000000
  -V(xc)+E(xc)   XCENC  =        82.27310566
  PAW double counting   =      1621.29608897    -1652.04682747
  entropy T*S    EENTRO =         0.00000000
  eigenvalues    EBANDS =      -172.80016552
  atomic energy  EATOM  =      2446.71027231
  Solvation  Ediel_sol  =         0.00000000
  ---------------------------------------------------
  free energy    TOTEN  =       -13.34801083 eV

  energy without entropy =      -13.34801083  energy(sigma->0) =      -13.34801083


--------------------------------------------------------------------------------------------------------




 average (electrostatic) potential at core
  the test charge radii are     1.0894  0.9698
  (the norm of the test charge is              1.0000)
       1-102.2202       2 -85.9992       3 -85.9992
 
 
 
 E-fermi :   4.5048     XC(G=0):  -9.4849     alpha+bet :-11.1089


 k-point     1 :       0.0000    0.0000    0.0000
  band No.  band energies     occupation 
      1     -16.5369      2.00000
      2     -16.5369      2.00000
      3     -16.4950      2.00000
      4     -16.4680      2.00000
      5     -16.4680      2.00000
      6      -9.2910      2.00000
      7      -7.3089      2.00000
      8      -1.1061      2.00000
      9       3.8235      2.00000
     10       3.8236      2.00000
     11       4.1191      2.00000
     12       4.1191      2.00000
     13       4.3256      2.00000
     14       6.4252      0.00000
     15       8.1321      0.00000
     16       9.8793      0.00000
     17       9.8794      0.00000
     18      13.2299      0.00000
     19      13.9594      0.00000
     20      13.9594      0.00000
     21      14.8625      0.00000
     22      15.8011      0.00000
     23      15.8011      0.00000
     24      16.1047      0.00000
     25      16.6882      0.00000
     26      16.6882      0.00000
     27      18.0039      0.00000
     28      18.4605      0.00000
     29      22.7086      0.00000
     30      22.7086      0.00000
     31      24.3014      0.00000
     32      24.4569      0.00000
     33      25.8803      0.00000
     34      25.8804      0.00000
     35      27.3245      0.00000
     36      27.3245      0.00000
     37      28.2254      0.00000
     38      28.2254      0.00000
     39      28.5684      0.00000
     40      31.0100      0.00000
     41      33.4910      0.00000
     42      33.7729      0.00000
     43      34.2855      0.00000
     44      34.2855      0.00000
     45      34.5162      0.00000
     46      34.5162      0.00000
     47      35.2133      0.00000
     48      35.2133      0.00000
     49      35.6915      0.00000
     50      37.0235      0.00000
     51      37.9486      0.00000
     52      39.3733      0.00000
     53      39.3733      0.00000
     54      40.8940      0.00000
     55      40.8940      0.00000
     56      42.4062      0.00000
     57      42.4108      0.00000
     58      43.7383      0.00000
     59      43.7383      0.00000
     60      44.6469      0.00000
     61      44.6469      0.00000
     62      45.5384      0.00000
     63      45.8847      0.00000
     64      45.9630      0.00000

 k-point     2 :       0.1667   -0.0000    0.0000
  band No.  band energies     occupation 
      1     -16.5537      2.00000
      2     -16.5220      2.00000
      3     -16.4848      2.00000
      4     -16.4758      2.00000
      5     -16.4661      2.00000
      6      -8.9845      2.00000
      7      -7.1028      2.00000
      8      -1.0695      2.00000
      9       2.0004      2.00000
     10       3.0872      2.00000
     11       3.0907      2.00000
     12       4.3047      2.00000
     13       4.3220      2.00000
     14       7.3281      0.00000
     15       8.9329      0.00000
     16       9.9561      0.00000
     17      10.3770      0.00000
     18      12.3570      0.00000
     19      13.4849      0.00000
     20      14.2768      0.00000
     21      14.4189      0.00000
     22      14.7665      0.00000
     23      15.6120      0.00000
     24      17.5068      0.00000
     25      18.1617      0.00000
     26      18.9617      0.00000
     27      19.7161      0.00000
     28      20.6118      0.00000
     29      21.6102      0.00000
     30      22.6554      0.00000
     31      22.8586      0.00000
     32      24.6019      0.00000
     33      24.6856      0.00000
     34      25.7225      0.00000
     35      26.9964      0.00000
     36      28.2549      0.00000
     37      28.7709      0.00000
     38      29.4456      0.00000
     39      29.6767      0.00000
     40      29.7001      0.00000
     41      31.5103      0.00000
     42      31.8963      0.00000
     43      32.5922      0.00000
     44      33.1204      0.00000
     45      34.2180      0.00000
     46      34.5416      0.00000
     47      35.6499      0.00000
     48      36.2487      0.00000
     49      37.1143      0.00000
     50      37.3665      0.00000
     51      37.9465      0.00000
     52      38.3602      0.00000
     53      39.8520      0.00000
     54      40.2653      0.00000
     55      40.3704      0.00000
     56      41.6570      0.00000
     57      42.5477      0.00000
     58      43.2457      0.00000
     59      43.2468      0.00000
     60      43.9465      0.00000
     61      44.5904      0.00000
     62      44.8828      0.00000
     63      45.2347      0.00000
     64      45.3684      0.00000

 k-point     3 :       0.3333    0.0000    0.0000
  band No.  band energies     occupation 
      1     -16.5934      2.00000
      2     -16.5057      2.00000
      3     -16.4984      2.00000
      4     -16.4518      2.00000
      5     -16.4488      2.00000
      6      -8.1511      2.00000
      7      -6.7304      2.00000
      8      -1.6653      2.00000
      9       0.5330      2.00000
     10       1.8284      2.00000
     11       2.2738      2.00000
     12       3.9699      2.00000
     13       4.2225      2.00000
     14       6.5572      0.00000
     15       9.1594      0.00000
     16      10.7097      0.00000
     17      10.8135      0.00000
     18      11.6247      0.00000
     19      13.8274      0.00000
     20      14.6612      0.00000
     21      15.6821      0.00000
     22      16.3996      0.00000
     23      17.3714      0.00000
     24      18.1093      0.00000
     25      19.2958      0.00000
     26      19.4662      0.00000
     27      21.2648      0.00000
     28      21.9032      0.00000
     29      22.3706      0.00000
     30      23.2763      0.00000
     31      24.0793      0.00000
     32      24.7146      0.00000
     33      24.7359      0.00000
     34      25.0330      0.00000
     35      25.7072      0.00000
     36      25.7915      0.00000
     37      27.2932      0.00000
     38      27.3720      0.00000
     39      30.2326      0.00000
     40      30.5550      0.00000
     41      32.0782      0.00000
     42      32.4806      0.00000
     43      33.3186      0.00000
     44      33.4874      0.00000
     45      33.6445      0.00000
     46      34.2405      0.00000
     47      34.8623      0.00000
     48      35.7424      0.00000
     49      36.0211      0.00000
     50      36.7558      0.00000
     51      37.9098      0.00000
     52      37.9985      0.00000
     53      38.7477      0.00000
     54      38.9368      0.00000
     55      40.0625      0.00000
     56      40.2209      0.00000
     57      40.9732      0.00000
     58      41.6826      0.00000
     59      42.3999      0.00000
     60      42.6874      0.00000
     61      42.8357      0.00000
     62      44.1012      0.00000
     63      44.6082      0.00000
     64      45.2279      0.00000

 k-point     4 :       0.5000   -0.0000    0.0000
  band No.  band energies     occupation 
      1     -16.6142      2.00000
      2     -16.5061      2.00000
      3     -16.5040      2.00000
      4     -16.4376      2.00000
      5     -16.4334      2.00000
      6      -7.3976      2.00000
      7      -6.7613      2.00000
      8      -2.3674      2.00000
      9       0.0754      2.00000
     10       1.7998      2.00000
     11       1.9576      2.00000
     12       3.4910      2.00000
     13       4.1380      2.00000
     14       6.1315      0.00000
     15       8.9453      0.00000
     16      10.4521      0.00000
     17      10.6384      0.00000
     18      11.9041      0.00000
     19      14.7500      0.00000
     20      15.2685      0.00000
     21      17.7906      0.00000
     22      17.9585      0.00000
     23      18.0792      0.00000
     24      19.4092      0.00000
     25      19.5004      0.00000
     26      19.6522      0.00000
     27      20.1637      0.00000
     28      20.3446      0.00000
     29      21.2493      0.00000
     30      21.5899      0.00000
     31      22.3720      0.00000
     32      25.2415      0.00000
     33      25.9203      0.00000
     34      26.9608      0.00000
     35      27.0684      0.00000
     36      27.4403      0.00000
     37      27.9923      0.00000
     38      28.7768      0.00000
     39      29.3898      0.00000
     40      30.2833      0.00000
     41      31.0095      0.00000
     42      31.0552      0.00000
     43      31.5951      0.00000
     44      32.4372      0.00000
     45      33.1664      0.00000
     46      33.7814      0.00000
     47      35.2807      0.00000
     48      35.3665      0.00000
     49      36.2468      0.00000
     50      36.4823      0.00000
     51      37.7684      0.00000
     52      38.4283      0.00000
     53      38.9324      0.00000
     54      39.1252      0.00000
     55      40.3009      0.00000
     56      40.5072      0.00000
     57      40.6965      0.00000
     58      40.9822      0.00000
     59      41.2498      0.00000
     60      41.3823      0.00000
     61      41.8698      0.00000
     62      43.5172      0.00000
     63      44.0962      0.00000
     64      44.5484      0.00000

 k-point     5 :       0.1667    0.1667    0.0000
  band No.  band energies     occupation 
      1     -16.5728      2.00000
      2     -16.5181      2.00000
      3     -16.4864      2.00000
      4     -16.4733      2.00000
      5     -16.4489      2.00000
      6      -8.4075      2.00000
      7      -6.8022      2.00000
      8      -1.3528      2.00000
      9       1.2069      2.00000
     10       1.2327      2.00000
     11       3.1527      2.00000
     12       3.3206      2.00000
     13       4.2672      2.00000
     14       7.2429      0.00000
     15      10.1606      0.00000
     16      10.1841      0.00000
     17      10.9073      0.00000
     18      11.8028      0.00000
     19      12.1764      0.00000
     20      14.9623      0.00000
     21      15.2822      0.00000
     22      15.4648      0.00000
     23      16.9197      0.00000
     24      17.8386      0.00000
     25      19.9991      0.00000
     26      20.5559      0.00000
     27      20.6638      0.00000
     28      20.8915      0.00000
     29      22.5600      0.00000
     30      22.9595      0.00000
     31      23.1459      0.00000
     32      23.7434      0.00000
     33      24.5416      0.00000
     34      24.6791      0.00000
     35      26.1485      0.00000
     36      28.0909      0.00000
     37      28.5359      0.00000
     38      29.4457      0.00000
     39      29.6679      0.00000
     40      30.3000      0.00000
     41      30.6970      0.00000
     42      31.3918      0.00000
     43      31.7788      0.00000
     44      33.2473      0.00000
     45      33.7947      0.00000
     46      34.6268      0.00000
     47      35.0748      0.00000
     48      36.1285      0.00000
     49      36.7259      0.00000
     50      37.0968      0.00000
     51      37.9899      0.00000
     52      38.2224      0.00000
     53      39.1529      0.00000
     54      39.6673      0.00000
     55      40.5580      0.00000
     56      41.1694      0.00000
     57      41.3019      0.00000
     58      41.5833      0.00000
     59      42.0239      0.00000
     60      42.7458      0.00000
     61      42.8202      0.00000
     62      43.9547      0.00000
     63      44.7959      0.00000
     64      45.1478      0.00000

 k-point     6 :       0.3333    0.1667    0.0000
  band No.  band energies     occupation 
      1     -16.5924      2.00000
      2     -16.5208      2.00000
      3     -16.4931      2.00000
      4     -16.4540      2.00000
      5     -16.4363      2.00000
      6      -7.4907      2.00000
      7      -6.6508      2.00000
      8      -2.2777      2.00000
      9       0.3864      2.00000
     10       1.2868      2.00000
     11       1.9561      2.00000
     12       3.1665      2.00000
     13       3.7337      2.00000
     14       6.6831      0.00000
     15      10.2785      0.00000
     16      10.6351      0.00000
     17      11.2188      0.00000
     18      11.7804      0.00000
     19      13.4752      0.00000
     20      14.8021      0.00000
     21      16.5607      0.00000
     22      17.0258      0.00000
     23      17.9591      0.00000
     24      18.8773      0.00000
     25      19.0806      0.00000
     26      19.8814      0.00000
     27      20.5405      0.00000
     28      20.9727      0.00000
     29      22.0796      0.00000
     30      22.9461      0.00000
     31      23.6403      0.00000
     32      25.0040      0.00000
     33      26.3732      0.00000
     34      26.4851      0.00000
     35      26.9496      0.00000
     36      27.4888      0.00000
     37      27.9378      0.00000
     38      28.1928      0.00000
     39      28.7978      0.00000
     40      30.0862      0.00000
     41      31.0422      0.00000
     42      31.6880      0.00000
     43      32.4505      0.00000
     44      33.1647      0.00000
     45      33.7683      0.00000
     46      33.9864      0.00000
     47      34.3635      0.00000
     48      34.7472      0.00000
     49      35.4156      0.00000
     50      36.0400      0.00000
     51      37.2194      0.00000
     52      38.2223      0.00000
     53      38.4334      0.00000
     54      39.0702      0.00000
     55      39.5822      0.00000
     56      39.7423      0.00000
     57      40.4339      0.00000
     58      41.0341      0.00000
     59      41.5390      0.00000
     60      42.3376      0.00000
     61      42.6543      0.00000
     62      43.3113      0.00000
     63      43.5780      0.00000
     64      44.0891      0.00000

 k-point     7 :       0.3333    0.3333    0.0000
  band No.  band energies     occupation 
      1     -16.5588      2.00000
      2     -16.5588      2.00000
      3     -16.4675      2.00000
      4     -16.4675      2.00000
      5     -16.4438      2.00000
      6      -6.8494      2.00000
      7      -6.8494      2.00000
      8      -2.6606      2.00000
      9       0.8771      2.00000
     10       0.8771      2.00000
     11       1.2394      2.00000
     12       3.1405      2.00000
     13       3.1405      2.00000
     14       6.5647      0.00000
     15      11.3157      0.00000
     16      11.3157      0.00000
     17      12.1487      0.00000
     18      12.3740      0.00000
     19      13.4115      0.00000
     20      13.4115      0.00000
     21      16.8302      0.00000
     22      16.8302      0.00000
     23      17.1728      0.00000
     24      17.9530      0.00000
     25      17.9531      0.00000
     26      19.1374      0.00000
     27      21.7458      0.00000
     28      23.4930      0.00000
     29      23.5773      0.00000
     30      23.5773      0.00000
     31      24.4267      0.00000
     32      24.4268      0.00000
     33      25.4532      0.00000
     34      26.2419      0.00000
     35      26.2419      0.00000
     36      28.4396      0.00000
     37      28.4396      0.00000
     38      28.4786      0.00000
     39      30.4088      0.00000
     40      30.8415      0.00000
     41      30.9616      0.00000
     42      30.9616      0.00000
     43      31.5383      0.00000
     44      31.5383      0.00000
     45      33.9960      0.00000
     46      34.4962      0.00000
     47      34.5616      0.00000
     48      34.5616      0.00000
     49      35.4394      0.00000
     50      36.2377      0.00000
     51      36.2377      0.00000
     52      36.8250      0.00000
     53      36.8250      0.00000
     54      38.3054      0.00000
     55      38.9855      0.00000
     56      38.9855      0.00000
     57      39.7775      0.00000
     58      39.7775      0.00000
     59      40.3489      0.00000
     60      42.4731      0.00000
     61      42.4731      0.00000
     62      43.9457      0.00000
     63      45.0999      0.00000
     64      45.1000      0.00000

 k-point     8 :       0.0000    0.0000    0.1667
  band No.  band energies     occupation 
      1     -16.5368      2.00000
      2     -16.5368      2.00000
      3     -16.4949      2.00000
      4     -16.4680      2.00000
      5     -16.4680      2.00000
      6      -9.2600      2.00000
      7      -7.3813      2.00000
      8      -0.9160      2.00000
      9       3.8027      2.00000
     10       3.8027      2.00000
     11       3.8486      2.00000
     12       4.1495      2.00000
     13       4.1495      2.00000
     14       6.7807      0.00000
     15       8.1483      0.00000
     16       9.8257      0.00000
     17       9.8257      0.00000
     18      13.2850      0.00000
     19      13.8214      0.00000
     20      13.8214      0.00000
     21      14.5032      0.00000
     22      16.0452      0.00000
     23      16.0452      0.00000
     24      16.4094      0.00000
     25      17.0015      0.00000
     26      17.0015      0.00000
     27      17.2938      0.00000
     28      19.6223      0.00000
     29      21.8902      0.00000
     30      21.8902      0.00000
     31      22.8793      0.00000
     32      25.1377      0.00000
     33      25.1377      0.00000
     34      26.3136      0.00000
     35      27.4010      0.00000
     36      27.6535      0.00000
     37      27.6535      0.00000
     38      29.8544      0.00000
     39      29.8544      0.00000
     40      31.3050      0.00000
     41      32.3307      0.00000
     42      33.7758      0.00000
     43      34.2464      0.00000
     44      34.2464      0.00000
     45      34.4336      0.00000
     46      34.4336      0.00000
     47      35.2389      0.00000
     48      35.2389      0.00000
     49      35.9429      0.00000
     50      37.8317      0.00000
     51      38.5273      0.00000
     52      39.1326      0.00000
     53      39.1326      0.00000
     54      39.8622      0.00000
     55      39.8623      0.00000
     56      42.2830      0.00000
     57      42.3649      0.00000
     58      42.5460      0.00000
     59      42.5460      0.00000
     60      44.7011      0.00000
     61      44.7011      0.00000
     62      45.7984      0.00000
     63      45.8447      0.00000
     64      46.1590      0.00000

 k-point     9 :       0.1667   -0.0000    0.1667
  band No.  band energies     occupation 
      1     -16.5537      2.00000
      2     -16.5221      2.00000
      3     -16.4847      2.00000
      4     -16.4759      2.00000
      5     -16.4661      2.00000
      6      -8.9544      2.00000
      7      -7.1696      2.00000
      8      -0.9121      2.00000
      9       1.9550      2.00000
     10       3.0184      2.00000
     11       3.0802      2.00000
     12       4.1801      2.00000
     13       4.3417      2.00000
     14       7.4596      0.00000
     15       8.9536      0.00000
     16       9.9603      0.00000
     17      10.2598      0.00000
     18      12.1240      0.00000
     19      13.6905      0.00000
     20      14.0473      0.00000
     21      14.4890      0.00000
     22      15.3216      0.00000
     23      15.6632      0.00000
     24      17.7636      0.00000
     25      18.3457      0.00000
     26      18.6375      0.00000
     27      19.4883      0.00000
     28      20.3359      0.00000
     29      21.3633      0.00000
     30      21.5703      0.00000
     31      23.3608      0.00000
     32      24.9228      0.00000
     33      25.4221      0.00000
     34      26.4923      0.00000
     35      26.8368      0.00000
     36      26.8911      0.00000
     37      28.9487      0.00000
     38      29.6411      0.00000
     39      30.0207      0.00000
     40      30.6758      0.00000
     41      31.5402      0.00000
     42      31.8269      0.00000
     43      32.1968      0.00000
     44      32.7049      0.00000
     45      34.1947      0.00000
     46      34.2728      0.00000
     47      34.5752      0.00000
     48      37.0252      0.00000
     49      37.2116      0.00000
     50      37.3633      0.00000
     51      38.5693      0.00000
     52      38.8046      0.00000
     53      39.2150      0.00000
     54      40.2185      0.00000
     55      40.9578      0.00000
     56      41.3134      0.00000
     57      42.2286      0.00000
     58      42.3083      0.00000
     59      43.3415      0.00000
     60      43.4233      0.00000
     61      44.5554      0.00000
     62      44.8786      0.00000
     63      45.0966      0.00000
     64      45.4231      0.00000

 k-point    10 :       0.3333    0.0000    0.1667
  band No.  band energies     occupation 
      1     -16.5934      2.00000
      2     -16.5057      2.00000
      3     -16.4984      2.00000
      4     -16.4517      2.00000
      5     -16.4488      2.00000
      6      -8.1250      2.00000
      7      -6.7756      2.00000
      8      -1.5830      2.00000
      9       0.3527      2.00000
     10       1.9062      2.00000
     11       2.2913      2.00000
     12       4.1093      2.00000
     13       4.1871      2.00000
     14       6.6201      0.00000
     15       9.1532      0.00000
     16      10.5436      0.00000
     17      10.7419      0.00000
     18      11.2112      0.00000
     19      14.0848      0.00000
     20      15.4763      0.00000
     21      15.9796      0.00000
     22      16.1357      0.00000
     23      17.1866      0.00000
     24      18.0582      0.00000
     25      18.4854      0.00000
     26      19.0337      0.00000
     27      21.7862      0.00000
     28      21.7943      0.00000
     29      22.7344      0.00000
     30      23.1317      0.00000
     31      24.0713      0.00000
     32      24.7262      0.00000
     33      24.8361      0.00000
     34      25.7446      0.00000
     35      26.0673      0.00000
     36      26.5267      0.00000
     37      26.9502      0.00000
     38      27.5610      0.00000
     39      29.2782      0.00000
     40      29.5410      0.00000
     41      31.6387      0.00000
     42      32.5991      0.00000
     43      33.1917      0.00000
     44      34.0098      0.00000
     45      34.1232      0.00000
     46      34.2519      0.00000
     47      34.5453      0.00000
     48      35.5546      0.00000
     49      36.3990      0.00000
     50      36.4710      0.00000
     51      37.4414      0.00000
     52      37.7117      0.00000
     53      37.9881      0.00000
     54      39.1525      0.00000
     55      40.2078      0.00000
     56      40.6806      0.00000
     57      41.2895      0.00000
     58      42.0976      0.00000
     59      42.6089      0.00000
     60      42.9986      0.00000
     61      43.4100      0.00000
     62      44.1092      0.00000
     63      44.1167      0.00000
     64      44.8956      0.00000

 k-point    11 :       0.5000   -0.0000    0.1667
  band No.  band energies     occupation 
      1     -16.6143      2.00000
      2     -16.5062      2.00000
      3     -16.5041      2.00000
      4     -16.4376      2.00000
      5     -16.4335      2.00000
      6      -7.3794      2.00000
      7      -6.7740      2.00000
      8      -2.4023      2.00000
      9      -0.0252      2.00000
     10       1.9587      2.00000
     11       1.9867      2.00000
     12       3.6336      2.00000
     13       4.0697      2.00000
     14       6.0055      0.00000
     15       8.9878      0.00000
     16      10.6161      0.00000
     17      10.7949      0.00000
     18      11.3531      0.00000
     19      14.5716      0.00000
     20      15.7067      0.00000
     21      17.3986      0.00000
     22      17.6852      0.00000
     23      18.3713      0.00000
     24      18.8419      0.00000
     25      19.4628      0.00000
     26      19.8940      0.00000
     27      20.2212      0.00000
     28      20.8303      0.00000
     29      21.0441      0.00000
     30      22.3126      0.00000
     31      22.3502      0.00000
     32      25.3899      0.00000
     33      26.1448      0.00000
     34      26.8693      0.00000
     35      27.2612      0.00000
     36      27.5899      0.00000
     37      27.9031      0.00000
     38      28.8093      0.00000
     39      29.4627      0.00000
     40      30.0163      0.00000
     41      30.3363      0.00000
     42      30.4803      0.00000
     43      31.2895      0.00000
     44      32.5895      0.00000
     45      33.8430      0.00000
     46      33.9060      0.00000
     47      34.9487      0.00000
     48      35.0970      0.00000
     49      36.4357      0.00000
     50      36.6583      0.00000
     51      37.6773      0.00000
     52      38.0710      0.00000
     53      38.3429      0.00000
     54      38.9353      0.00000
     55      39.2279      0.00000
     56      39.9605      0.00000
     57      40.8774      0.00000
     58      41.1218      0.00000
     59      41.3761      0.00000
     60      41.9394      0.00000
     61      43.1418      0.00000
     62      44.1249      0.00000
     63      44.2169      0.00000
     64      44.7224      0.00000

 k-point    12 :      -0.3333   -0.0000    0.1667
  band No.  band energies     occupation 
      1     -16.5934      2.00000
      2     -16.5057      2.00000
      3     -16.4984      2.00000
      4     -16.4517      2.00000
      5     -16.4488      2.00000
      6      -8.1234      2.00000
      7      -6.7720      2.00000
      8      -1.7440      2.00000
      9       0.7118      2.00000
     10       1.9729      2.00000
     11       2.3127      2.00000
     12       3.7487      2.00000
     13       4.1390      2.00000
     14       6.3288      0.00000
     15       9.2669      0.00000
     16      10.9031      0.00000
     17      11.1523      0.00000
     18      11.8899      0.00000
     19      13.4808      0.00000
     20      14.2942      0.00000
     21      15.4574      0.00000
     22      16.1730      0.00000
     23      17.3176      0.00000
     24      18.2461      0.00000
     25      19.2654      0.00000
     26      19.5473      0.00000
     27      21.3699      0.00000
     28      22.3215      0.00000
     29      22.7159      0.00000
     30      23.7599      0.00000
     31      24.1035      0.00000
     32      24.1845      0.00000
     33      24.3291      0.00000
     34      24.8926      0.00000
     35      25.3149      0.00000
     36      25.9603      0.00000
     37      27.7421      0.00000
     38      28.4528      0.00000
     39      30.0468      0.00000
     40      30.6667      0.00000
     41      31.0632      0.00000
     42      32.4009      0.00000
     43      32.9228      0.00000
     44      33.2677      0.00000
     45      34.0623      0.00000
     46      34.3530      0.00000
     47      34.6518      0.00000
     48      35.5931      0.00000
     49      35.9812      0.00000
     50      36.7098      0.00000
     51      37.1886      0.00000
     52      37.5746      0.00000
     53      38.9717      0.00000
     54      39.8328      0.00000
     55      39.8592      0.00000
     56      40.0462      0.00000
     57      40.7175      0.00000
     58      41.7312      0.00000
     59      42.3845      0.00000
     60      42.9637      0.00000
     61      43.0475      0.00000
     62      43.7800      0.00000
     63      44.4412      0.00000
     64      44.9949      0.00000

 k-point    13 :      -0.1667    0.0000    0.1667
  band No.  band energies     occupation 
      1     -16.5538      2.00000
      2     -16.5221      2.00000
      3     -16.4848      2.00000
      4     -16.4758      2.00000
      5     -16.4661      2.00000
      6      -8.9539      2.00000
      7      -7.1693      2.00000
      8      -0.9569      2.00000
      9       2.1322      2.00000
     10       3.0888      2.00000
     11       3.1364      2.00000
     12       3.9572      2.00000
     13       4.2430      2.00000
     14       7.2101      0.00000
     15       9.1064      0.00000
     16      10.1708      0.00000
     17      10.4858      0.00000
     18      12.3864      0.00000
     19      13.2321      0.00000
     20      14.0303      0.00000
     21      14.2835      0.00000
     22      15.2749      0.00000
     23      15.8058      0.00000
     24      17.1823      0.00000
     25      18.2771      0.00000
     26      18.9280      0.00000
     27      19.7390      0.00000
     28      20.6405      0.00000
     29      21.3687      0.00000
     30      22.5530      0.00000
     31      23.1617      0.00000
     32      24.1034      0.00000
     33      24.3590      0.00000
     34      25.4267      0.00000
     35      28.3778      0.00000
     36      28.6231      0.00000
     37      28.7844      0.00000
     38      29.2165      0.00000
     39      29.4459      0.00000
     40      31.2009      0.00000
     41      31.2695      0.00000
     42      31.6143      0.00000
     43      32.2400      0.00000
     44      32.6549      0.00000
     45      33.8070      0.00000
     46      34.1922      0.00000
     47      35.2362      0.00000
     48      36.9065      0.00000
     49      37.3475      0.00000
     50      37.5166      0.00000
     51      37.8976      0.00000
     52      38.3601      0.00000
     53      38.9593      0.00000
     54      40.2231      0.00000
     55      40.5803      0.00000
     56      41.8118      0.00000
     57      42.4332      0.00000
     58      42.6527      0.00000
     59      43.6837      0.00000
     60      44.4375      0.00000
     61      44.6233      0.00000
     62      44.7733      0.00000
     63      45.1300      0.00000
     64      45.5664      0.00000

 k-point    14 :       0.1667    0.1667    0.1667
  band No.  band energies     occupation 
      1     -16.5729      2.00000
      2     -16.5181      2.00000
      3     -16.4864      2.00000
      4     -16.4733      2.00000
      5     -16.4489      2.00000
      6      -8.3791      2.00000
      7      -6.8547      2.00000
      8      -1.3190      2.00000
      9       1.0987      2.00000
     10       1.4673      2.00000
     11       2.9948      2.00000
     12       3.3461      2.00000
     13       4.2400      2.00000
     14       7.2394      0.00000
     15       9.9134      0.00000
     16      10.3031      0.00000
     17      11.1094      0.00000
     18      11.6813      0.00000
     19      12.4904      0.00000
     20      14.5134      0.00000
     21      14.9545      0.00000
     22      16.1541      0.00000
     23      16.8307      0.00000
     24      17.8369      0.00000
     25      19.5397      0.00000
     26      20.1258      0.00000
     27      20.3530      0.00000
     28      21.6718      0.00000
     29      22.4769      0.00000
     30      23.1649      0.00000
     31      23.6687      0.00000
     32      24.0711      0.00000
     33      24.2509      0.00000
     34      24.9957      0.00000
     35      25.9015      0.00000
     36      27.9536      0.00000
     37      28.6643      0.00000
     38      29.0694      0.00000
     39      30.0453      0.00000
     40      30.1467      0.00000
     41      31.0923      0.00000
     42      31.7262      0.00000
     43      31.9437      0.00000
     44      32.8285      0.00000
     45      33.6436      0.00000
     46      34.1448      0.00000
     47      34.1994      0.00000
     48      35.1001      0.00000
     49      36.7090      0.00000
     50      37.6450      0.00000
     51      38.4179      0.00000
     52      38.5589      0.00000
     53      39.3231      0.00000
     54      39.6199      0.00000
     55      40.7061      0.00000
     56      40.8970      0.00000
     57      41.3041      0.00000
     58      41.4376      0.00000
     59      42.3847      0.00000
     60      42.7337      0.00000
     61      43.3486      0.00000
     62      44.0685      0.00000
     63      44.5681      0.00000
     64      45.4795      0.00000

 k-point    15 :       0.3333    0.1667    0.1667
  band No.  band energies     occupation 
      1     -16.5925      2.00000
      2     -16.5209      2.00000
      3     -16.4930      2.00000
      4     -16.4540      2.00000
      5     -16.4363      2.00000
      6      -7.4704      2.00000
      7      -6.6728      2.00000
      8      -2.2597      2.00000
      9       0.2082      2.00000
     10       1.4006      2.00000
     11       1.8594      2.00000
     12       3.3033      2.00000
     13       3.8681      2.00000
     14       6.7862      0.00000
     15      10.0069      0.00000
     16      10.8244      0.00000
     17      11.1008      0.00000
     18      11.3429      0.00000
     19      13.6865      0.00000
     20      15.1787      0.00000
     21      16.2877      0.00000
     22      16.5798      0.00000
     23      17.7670      0.00000
     24      18.7658      0.00000
     25      19.4224      0.00000
     26      20.5533      0.00000
     27      20.5891      0.00000
     28      21.1442      0.00000
     29      22.1834      0.00000
     30      22.8475      0.00000
     31      24.0571      0.00000
     32      24.9781      0.00000
     33      25.7976      0.00000
     34      26.4029      0.00000
     35      26.9766      0.00000
     36      27.5227      0.00000
     37      28.1032      0.00000
     38      28.4022      0.00000
     39      29.3527      0.00000
     40      29.6550      0.00000
     41      30.2915      0.00000
     42      31.3972      0.00000
     43      32.3892      0.00000
     44      32.8103      0.00000
     45      33.4676      0.00000
     46      34.0172      0.00000
     47      34.5979      0.00000
     48      35.2415      0.00000
     49      35.8659      0.00000
     50      36.0564      0.00000
     51      36.8271      0.00000
     52      37.1359      0.00000
     53      38.0404      0.00000
     54      39.0879      0.00000
     55      39.5346      0.00000
     56      40.0785      0.00000
     57      40.2391      0.00000
     58      41.6854      0.00000
     59      42.1584      0.00000
     60      42.5246      0.00000
     61      43.1472      0.00000
     62      43.2438      0.00000
     63      44.1454      0.00000
     64      44.6433      0.00000

 k-point    16 :       0.5000    0.1667    0.1667
  band No.  band energies     occupation 
      1     -16.5925      2.00000
      2     -16.5208      2.00000
      3     -16.4931      2.00000
      4     -16.4539      2.00000
      5     -16.4363      2.00000
      6      -7.4703      2.00000
      7      -6.6699      2.00000
      8      -2.3088      2.00000
      9       0.3976      2.00000
     10       1.1496      2.00000
     11       2.1495      2.00000
     12       3.0639      2.00000
     13       3.8981      2.00000
     14       6.6945      0.00000
     15      10.1198      0.00000
     16      10.6216      0.00000
     17      11.3443      0.00000
     18      11.7510      0.00000
     19      13.5113      0.00000
     20      14.7020      0.00000
     21      15.5743      0.00000
     22      17.4101      0.00000
     23      17.8408      0.00000
     24      18.9913      0.00000
     25      19.5826      0.00000
     26      20.0300      0.00000
     27      20.5949      0.00000
     28      21.4443      0.00000
     29      22.3069      0.00000
     30      22.8260      0.00000
     31      23.7766      0.00000
     32      24.7558      0.00000
     33      25.7119      0.00000
     34      26.7237      0.00000
     35      26.7530      0.00000
     36      27.5692      0.00000
     37      28.1238      0.00000
     38      28.4895      0.00000
     39      28.9689      0.00000
     40      30.2936      0.00000
     41      30.7652      0.00000
     42      31.5878      0.00000
     43      32.1361      0.00000
     44      32.5999      0.00000
     45      33.1338      0.00000
     46      33.8449      0.00000
     47      34.3648      0.00000
     48      34.8380      0.00000
     49      35.7517      0.00000
     50      36.3248      0.00000
     51      36.9084      0.00000
     52      38.1754      0.00000
     53      38.5725      0.00000
     54      39.3314      0.00000
     55      39.4647      0.00000
     56      39.7685      0.00000
     57      39.9483      0.00000
     58      41.0706      0.00000
     59      41.8090      0.00000
     60      42.1719      0.00000
     61      42.9051      0.00000
     62      43.4312      0.00000
     63      43.9050      0.00000
     64      44.5845      0.00000

 k-point    17 :       0.3333    0.3333    0.1667
  band No.  band energies     occupation 
      1     -16.5589      2.00000
      2     -16.5589      2.00000
[...]
   59.708646    0.849178    0.849178    0.848385   -0.000000    0.000000    0.000000
   59.785000    0.850141    0.850141    0.849407   -0.000000    0.000000    0.000000
   59.861353    0.851078    0.851078    0.850400   -0.000000    0.000000    0.000000
   59.937707    0.851991    0.851991    0.851367   -0.000000    0.000000    0.000000
   60.014061    0.852882    0.852882    0.852308   -0.000000    0.000000    0.000000
   60.090415    0.853752    0.853752    0.853227   -0.000000    0.000000    0.000000
   60.166768    0.854603    0.854603    0.854123   -0.000000    0.000000    0.000000
   60.243122    0.855434    0.855434    0.854999   -0.000000    0.000000    0.000000
   60.319476    0.856249    0.856249    0.855855   -0.000000    0.000000    0.000000
   60.395830    0.857046    0.857046    0.856693   -0.000000    0.000000    0.000000
   60.472184    0.857827    0.857827    0.857513   -0.000000    0.000000    0.000000
   60.548537    0.858594    0.858594    0.858317   -0.000000    0.000000    0.000000
   60.624891    0.859346    0.859346    0.859105   -0.000000    0.000000    0.000000
   60.701245    0.860084    0.860084    0.859878   -0.000000    0.000000    0.000000
   60.777599    0.860809    0.860809    0.860636   -0.000000    0.000000    0.000000
   60.853952    0.861522    0.861522    0.861380   -0.000000    0.000000    0.000000
   60.930306    0.862223    0.862223    0.862112   -0.000000    0.000000    0.000000
   61.006660    0.862912    0.862912    0.862830   -0.000000    0.000000    0.000000
   61.083014    0.863589    0.863589    0.863537   -0.000000    0.000000    0.000000
   61.159367    0.864257    0.864257    0.864232   -0.000000    0.000000    0.000000
   61.235721    0.864914    0.864914    0.864915   -0.000000    0.000000    0.000000
   61.312075    0.865561    0.865561    0.865588   -0.000000    0.000000    0.000000
   61.388429    0.866198    0.866198    0.866250   -0.000000    0.000000    0.000000
   61.464782    0.866826    0.866826    0.866903   -0.000000    0.000000    0.000000
   61.541136    0.867446    0.867446    0.867545   -0.000000    0.000000    0.000000
   61.617490    0.868056    0.868056    0.868179   -0.000000    0.000000    0.000000
   61.693844    0.868659    0.868659    0.868803   -0.000000    0.000000    0.000000
   61.770198    0.869253    0.869253    0.869418   -0.000000    0.000000    0.000000
   61.846551    0.869839    0.869839    0.870025   -0.000000    0.000000    0.000000
   61.922905    0.870418    0.870418    0.870624   -0.000000    0.000000    0.000000
   61.999259    0.870990    0.870990    0.871215   -0.000000    0.000000    0.000000
   62.075613    0.871554    0.871554    0.871798   -0.000000    0.000000    0.000000
   62.151966    0.872111    0.872111    0.872373   -0.000000    0.000000    0.000000
   62.228320    0.872662    0.872662    0.872942   -0.000000    0.000000    0.000000
   62.304674    0.873206    0.873206    0.873503   -0.000000    0.000000    0.000000
   62.381028    0.873744    0.873744    0.874057   -0.000000    0.000000    0.000000
   62.457381    0.874275    0.874275    0.874605   -0.000000    0.000000    0.000000
   62.533735    0.874800    0.874800    0.875146   -0.000000    0.000000    0.000000
   62.610089    0.875320    0.875320    0.875681   -0.000000    0.000000    0.000000
   62.686443    0.875834    0.875834    0.876209   -0.000000    0.000000    0.000000
   62.762797    0.876342    0.876342    0.876732   -0.000000    0.000000    0.000000
   62.839150    0.876844    0.876844    0.877249   -0.000000    0.000000    0.000000
   62.915504    0.877342    0.877342    0.877760   -0.000000    0.000000    0.000000
   62.991858    0.877834    0.877834    0.878265   -0.000000    0.000000    0.000000
   63.068212    0.878321    0.878321    0.878765   -0.000000    0.000000    0.000000
   63.144565    0.878803    0.878803    0.879259   -0.000000    0.000000    0.000000
   63.220919    0.879280    0.879280    0.879749   -0.000000    0.000000    0.000000
   63.297273    0.879752    0.879752    0.880233   -0.000000    0.000000    0.000000
   63.373627    0.880220    0.880220    0.880712   -0.000000    0.000000    0.000000
   63.449980    0.880683    0.880683    0.881187   -0.000000    0.000000    0.000000
   63.526334    0.881141    0.881141    0.881657   -0.000000    0.000000    0.000000
   63.602688    0.881596    0.881596    0.882122   -0.000000    0.000000    0.000000
   63.679042    0.882046    0.882046    0.882582   -0.000000    0.000000    0.000000
   63.755395    0.882492    0.882492    0.883038   -0.000000    0.000000    0.000000
   63.831749    0.882933    0.882933    0.883490   -0.000000    0.000000    0.000000
   63.908103    0.883371    0.883371    0.883937   -0.000000    0.000000    0.000000
   63.984457    0.883805    0.883805    0.884380   -0.000000    0.000000    0.000000
   64.060811    0.884235    0.884235    0.884820   -0.000000    0.000000    0.000000
   64.137164    0.884661    0.884661    0.885255   -0.000000    0.000000    0.000000
   64.213518    0.885083    0.885083    0.885686   -0.000000    0.000000    0.000000
   64.289872    0.885502    0.885502    0.886113   -0.000000    0.000000    0.000000
   64.366226    0.885917    0.885917    0.886536   -0.000000    0.000000    0.000000
   64.442579    0.886329    0.886328    0.886956   -0.000000    0.000000    0.000000
   64.518933    0.886737    0.886737    0.887372   -0.000000    0.000000    0.000000
   64.595287    0.887141    0.887141    0.887785   -0.000000    0.000000    0.000000
   64.671641    0.887543    0.887543    0.888193   -0.000000    0.000000    0.000000
   64.747994    0.887941    0.887941    0.888599   -0.000000    0.000000    0.000000
   64.824348    0.888336    0.888336    0.889001   -0.000000    0.000000    0.000000
   64.900702    0.888727    0.888727    0.889400   -0.000000    0.000000    0.000000
   64.977056    0.889116    0.889116    0.889795   -0.000000    0.000000    0.000000
   65.053410    0.889501    0.889501    0.890187   -0.000000    0.000000    0.000000
   65.129763    0.889884    0.889884    0.890576   -0.000000    0.000000    0.000000
   65.206117    0.890263    0.890263    0.890962   -0.000000    0.000000    0.000000
   65.282471    0.890640    0.890640    0.891345   -0.000000    0.000000    0.000000
   65.358825    0.891014    0.891014    0.891724   -0.000000    0.000000    0.000000
   65.435178    0.891385    0.891385    0.892101   -0.000000    0.000000    0.000000
   65.511532    0.891753    0.891753    0.892475   -0.000000    0.000000    0.000000
   65.587886    0.892118    0.892118    0.892846   -0.000000    0.000000    0.000000
   65.664240    0.892481    0.892481    0.893214   -0.000000    0.000000    0.000000
   65.740593    0.892841    0.892841    0.893579   -0.000000    0.000000    0.000000
   65.816947    0.893198    0.893198    0.893942   -0.000000    0.000000    0.000000
   65.893301    0.893553    0.893553    0.894302   -0.000000    0.000000    0.000000
   65.969655    0.893905    0.893905    0.894659   -0.000000    0.000000    0.000000
   66.046009    0.894255    0.894255    0.895014   -0.000000    0.000000    0.000000
   66.122362    0.894602    0.894602    0.895365   -0.000000    0.000000    0.000000
   66.198716    0.894947    0.894947    0.895715   -0.000000    0.000000    0.000000
   66.275070    0.895289    0.895289    0.896062   -0.000000    0.000000    0.000000
   66.351424    0.895629    0.895629    0.896406   -0.000000    0.000000    0.000000
   66.427777    0.895967    0.895967    0.896748   -0.000000    0.000000    0.000000
   66.504131    0.896302    0.896302    0.897088   -0.000000    0.000000    0.000000
   66.580485    0.896635    0.896635    0.897425   -0.000000    0.000000    0.000000
   66.656839    0.896966    0.896966    0.897760   -0.000000    0.000000    0.000000
   66.733192    0.897295    0.897294    0.898092   -0.000000    0.000000    0.000000
   66.809546    0.897621    0.897621    0.898422   -0.000000    0.000000    0.000000
   66.885900    0.897945    0.897945    0.898750   -0.000000    0.000000    0.000000
   66.962254    0.898267    0.898267    0.899076   -0.000000    0.000000    0.000000
   67.038607    0.898587    0.898587    0.899399   -0.000000    0.000000    0.000000
   67.114961    0.898905    0.898905    0.899721   -0.000000    0.000000    0.000000
   67.191315    0.899221    0.899221    0.900040   -0.000000    0.000000    0.000000
   67.267669    0.899535    0.899535    0.900357   -0.000000    0.000000    0.000000
   67.344023    0.899847    0.899847    0.900672   -0.000000    0.000000    0.000000
   67.420376    0.900157    0.900157    0.900985   -0.000000    0.000000    0.000000
   67.496730    0.900465    0.900465    0.901296   -0.000000    0.000000    0.000000
   67.573084    0.900771    0.900771    0.901605   -0.000000    0.000000    0.000000
   67.649438    0.901075    0.901075    0.901912   -0.000000    0.000000    0.000000
   67.725791    0.901377    0.901377    0.902217   -0.000000    0.000000    0.000000
   67.802145    0.901677    0.901677    0.902520   -0.000000    0.000000    0.000000
   67.878499    0.901976    0.901976    0.902821   -0.000000    0.000000    0.000000
   67.954853    0.902273    0.902272    0.903120   -0.000000    0.000000    0.000000
   68.031206    0.902567    0.902567    0.903418   -0.000000    0.000000    0.000000
   68.107560    0.902861    0.902861    0.903713   -0.000000    0.000000    0.000000
   68.183914    0.903152    0.903152    0.904007   -0.000000    0.000000    0.000000
   68.260268    0.903442    0.903441    0.904299   -0.000000    0.000000    0.000000
   68.336622    0.903729    0.903729    0.904589   -0.000000    0.000000    0.000000
   68.412975    0.904016    0.904016    0.904878   -0.000000    0.000000    0.000000
   68.489329    0.904300    0.904300    0.905164   -0.000000    0.000000    0.000000
   68.565683    0.904583    0.904583    0.905449   -0.000000    0.000000    0.000000
   68.642037    0.904864    0.904864    0.905733   -0.000000    0.000000    0.000000
   68.718390    0.905144    0.905144    0.906014   -0.000000    0.000000    0.000000
   68.794744    0.905422    0.905422    0.906294   -0.000000    0.000000    0.000000
   68.871098    0.905698    0.905698    0.906572   -0.000000    0.000000    0.000000
   68.947452    0.905973    0.905973    0.906849   -0.000000    0.000000    0.000000
   69.023805    0.906246    0.906246    0.907124   -0.000000    0.000000    0.000000
   69.100159    0.906518    0.906518    0.907398   -0.000000    0.000000    0.000000
   69.176513    0.906788    0.906788    0.907669   -0.000000    0.000000    0.000000
   69.252867    0.907057    0.907057    0.907940   -0.000000    0.000000    0.000000
   69.329220    0.907324    0.907324    0.908208   -0.000000    0.000000    0.000000
   69.405574    0.907590    0.907590    0.908476   -0.000000    0.000000    0.000000
   69.481928    0.907854    0.907854    0.908741   -0.000000    0.000000    0.000000
   69.558282    0.908117    0.908117    0.909006   -0.000000    0.000000    0.000000
   69.634636    0.908378    0.908378    0.909268   -0.000000    0.000000    0.000000
   69.710989    0.908638    0.908638    0.909530   -0.000000    0.000000    0.000000
   69.787343    0.908897    0.908897    0.909790   -0.000000    0.000000    0.000000
   69.863697    0.909154    0.909154    0.910048   -0.000000    0.000000    0.000000
   69.940051    0.909410    0.909410    0.910305   -0.000000    0.000000    0.000000
   70.016404    0.909664    0.909664    0.910561   -0.000000    0.000000    0.000000
   70.092758    0.909917    0.909917    0.910815   -0.000000    0.000000    0.000000
   70.169112    0.910169    0.910169    0.911068   -0.000000    0.000000    0.000000
   70.245466    0.910419    0.910419    0.911319   -0.000000    0.000000    0.000000
   70.321819    0.910668    0.910668    0.911569   -0.000000    0.000000    0.000000
   70.398173    0.910916    0.910916    0.911818   -0.000000    0.000000    0.000000
   70.474527    0.911163    0.911163    0.912065   -0.000000    0.000000    0.000000
   70.550881    0.911408    0.911408    0.912312   -0.000000    0.000000    0.000000
   70.627235    0.911652    0.911652    0.912556   -0.000000    0.000000    0.000000
   70.703588    0.911894    0.911894    0.912800   -0.000000    0.000000    0.000000
   70.779942    0.912136    0.912136    0.913042   -0.000000    0.000000    0.000000
   70.856296    0.912376    0.912376    0.913283   -0.000000    0.000000    0.000000
   70.932650    0.912615    0.912615    0.913523   -0.000000    0.000000    0.000000
   71.009003    0.912853    0.912853    0.913761   -0.000000    0.000000    0.000000
   71.085357    0.913089    0.913089    0.913999   -0.000000    0.000000    0.000000
   71.161711    0.913325    0.913325    0.914235   -0.000000    0.000000    0.000000
   71.238065    0.913559    0.913559    0.914470   -0.000000    0.000000    0.000000
   71.314418    0.913792    0.913792    0.914703   -0.000000    0.000000    0.000000
   71.390772    0.914024    0.914024    0.914936   -0.000000    0.000000    0.000000
   71.467126    0.914255    0.914255    0.915167   -0.000000    0.000000    0.000000
   71.543480    0.914484    0.914484    0.915397   -0.000000    0.000000    0.000000
   71.619834    0.914713    0.914713    0.915626   -0.000000    0.000000    0.000000
   71.696187    0.914940    0.914940    0.915854   -0.000000    0.000000    0.000000
   71.772541    0.915166    0.915166    0.916081   -0.000000    0.000000    0.000000
   71.848895    0.915392    0.915392    0.916306   -0.000000    0.000000    0.000000
   71.925249    0.915616    0.915616    0.916531   -0.000000    0.000000    0.000000
   72.001602    0.915839    0.915839    0.916754   -0.000000    0.000000    0.000000
   72.077956    0.916060    0.916060    0.916976   -0.000000    0.000000    0.000000
   72.154310    0.916281    0.916281    0.917197   -0.000000    0.000000    0.000000
   72.230664    0.916501    0.916501    0.917417   -0.000000    0.000000    0.000000
   72.307017    0.916720    0.916720    0.917636   -0.000000    0.000000    0.000000
   72.383371    0.916938    0.916938    0.917854   -0.000000    0.000000    0.000000
   72.459725    0.917154    0.917154    0.918071   -0.000000    0.000000    0.000000
   72.536079    0.917370    0.917370    0.918287   -0.000000    0.000000    0.000000
   72.612432    0.917585    0.917585    0.918502   -0.000000    0.000000    0.000000
   72.688786    0.917798    0.917798    0.918716   -0.000000    0.000000    0.000000
   72.765140    0.918011    0.918011    0.918929   -0.000000    0.000000    0.000000
   72.841494    0.918222    0.918222    0.919140   -0.000000    0.000000    0.000000
   72.917848    0.918433    0.918433    0.919351   -0.000000    0.000000    0.000000
   72.994201    0.918643    0.918643    0.919561   -0.000000    0.000000    0.000000
   73.070555    0.918852    0.918852    0.919770   -0.000000    0.000000    0.000000
   73.146909    0.919059    0.919059    0.919978   -0.000000    0.000000    0.000000
   73.223263    0.919266    0.919266    0.920184   -0.000000    0.000000    0.000000
   73.299616    0.919472    0.919472    0.920390   -0.000000    0.000000    0.000000
   73.375970    0.919677    0.919677    0.920595   -0.000000    0.000000    0.000000
   73.452324    0.919881    0.919881    0.920799   -0.000000    0.000000    0.000000
   73.528678    0.920084    0.920084    0.921002   -0.000000    0.000000    0.000000
   73.605031    0.920286    0.920286    0.921204   -0.000000    0.000000    0.000000
   73.681385    0.920488    0.920488    0.921406   -0.000000    0.000000    0.000000
   73.757739    0.920688    0.920688    0.921606   -0.000000    0.000000    0.000000
   73.834093    0.920887    0.920887    0.921805   -0.000000    0.000000    0.000000
   73.910447    0.921086    0.921086    0.922004   -0.000000    0.000000    0.000000
   73.986800    0.921284    0.921284    0.922201   -0.000000    0.000000    0.000000
   74.063154    0.921481    0.921481    0.922398   -0.000000    0.000000    0.000000
   74.139508    0.921677    0.921677    0.922594   -0.000000    0.000000    0.000000
   74.215862    0.921872    0.921872    0.922789   -0.000000    0.000000    0.000000
   74.292215    0.922066    0.922066    0.922983   -0.000000    0.000000    0.000000
   74.368569    0.922259    0.922259    0.923176   -0.000000    0.000000    0.000000
   74.444923    0.922452    0.922452    0.923368   -0.000000    0.000000    0.000000
   74.521277    0.922644    0.922644    0.923560   -0.000000    0.000000    0.000000
   74.597630    0.922834    0.922834    0.923750   -0.000000    0.000000    0.000000
   74.673984    0.923025    0.923025    0.923940   -0.000000    0.000000    0.000000
   74.750338    0.923214    0.923214    0.924129   -0.000000    0.000000    0.000000
   74.826692    0.923402    0.923402    0.924317   -0.000000    0.000000    0.000000
   74.903045    0.923590    0.923590    0.924505   -0.000000    0.000000    0.000000
   74.979399    0.923777    0.923777    0.924691   -0.000000    0.000000    0.000000
   75.055753    0.923963    0.923963    0.924877   -0.000000    0.000000    0.000000
   75.132107    0.924148    0.924148    0.925062   -0.000000    0.000000    0.000000
   75.208461    0.924332    0.924332    0.925246   -0.000000    0.000000    0.000000
   75.284814    0.924516    0.924516    0.925429   -0.000000    0.000000    0.000000
   75.361168    0.924699    0.924699    0.925612   -0.000000    0.000000    0.000000
   75.437522    0.924881    0.924881    0.925793   -0.000000    0.000000    0.000000
   75.513876    0.925063    0.925063    0.925974   -0.000000    0.000000    0.000000
   75.590229    0.925243    0.925243    0.926155   -0.000000    0.000000    0.000000
   75.666583    0.925423    0.925423    0.926334   -0.000000    0.000000    0.000000
   75.742937    0.925602    0.925602    0.926513   -0.000000    0.000000    0.000000
   75.819291    0.925781    0.925780    0.926691   -0.000000    0.000000    0.000000
   75.895644    0.925958    0.925958    0.926868   -0.000000    0.000000    0.000000
   75.971998    0.926135    0.926135    0.927044   -0.000000    0.000000    0.000000
   76.048352    0.926311    0.926311    0.927220   -0.000000    0.000000    0.000000
   76.124706    0.926487    0.926487    0.927395   -0.000000    0.000000    0.000000
   76.201060    0.926661    0.926661    0.927569   -0.000000    0.000000    0.000000
   76.277413    0.926835    0.926835    0.927743   -0.000000    0.000000    0.000000
 
 The outermost node in the dielectric function lies at epsilon=  18.6


--------------------------------------------------------------------------------------------------------


    OPTICS:  cpu time    1.0000: real time    0.9991
    4ORBIT:  cpu time    0.0000: real time    0.0000
 BZINTS: Fermi energy:  4.504849; 26.000000 electrons
         Band energy:-172.800166;  BLOECHL correction:  0.000000

 total amount of memory used by VASP on root node    40178. kBytes
========================================================================

   base      :      30000. kBytes
   nonl-proj :       1594. kBytes
   fftplans  :        874. kBytes
   grid      :       1429. kBytes
   one-center:         15. kBytes
   wavefun   :       6266. kBytes
 
  
  
 General timing and accounting informations for this job:
 ========================================================
  
                  Total CPU time used (sec):      129.508
                            User time (sec):      128.236
                          System time (sec):        1.272
                         Elapsed time (sec):      129.652
  
                   Maximum memory used (kb):      212772.
                   Average memory used (kb):           0.
  
                          Minor page faults:       159166
                          Major page faults:            2
                 Voluntary context switches:           30
