       N       E                     dE             d eps       ncg     rms          rms(c)
DAV:   1     0.213919533620E+03    0.21392E+03   -0.69866E+03  5736   0.414E+02
DAV:   2     0.151360158467E+02   -0.19878E+03   -0.17738E+03  4808   0.195E+02
DAV:   3    -0.130266365051E+02   -0.28163E+02   -0.27658E+02  5208   0.453E+01
DAV:   4    -0.138472226349E+02   -0.82059E+00   -0.81978E+00  5120   0.791E+00
DAV:   5    -0.138556746890E+02   -0.84521E-02   -0.84514E-02  5792   0.801E-01    0.350E+00
DAV:   6    -0.133772672519E+02    0.47841E+00   -0.36180E-01  6552   0.325E+00    0.157E+00
DAV:   7    -0.133466462303E+02    0.30621E-01   -0.82286E-02  5816   0.806E-01    0.724E-01
DAV:   8    -0.133474605199E+02   -0.81429E-03   -0.12263E-02  5288   0.353E-01    0.210E-01
DAV:   9    -0.133479504718E+02   -0.48995E-03   -0.89740E-04  5136   0.866E-02    0.376E-02
DAV:  10    -0.133479984988E+02   -0.48027E-04   -0.11049E-04  5184   0.265E-02    0.139E-02
DAV:  11    -0.133480087431E+02   -0.10244E-04   -0.74901E-06  5008   0.122E-02    0.359E-03
DAV:  12    -0.133480107789E+02   -0.20359E-05   -0.24934E-06  5120   0.537E-03    0.108E-03
DAV:  13    -0.133480109061E+02   -0.12722E-06   -0.14010E-07  5200   0.111E-03    0.532E-04
DAV:  14    -0.133480108052E+02    0.10091E-06   -0.35105E-08  5024   0.611E-04    0.208E-04
DAV:  15    -0.133480108112E+02   -0.59731E-08   -0.22837E-09  4984   0.124E-04
   1 F= -.13348011E+02 E0= -.13348011E+02  d E =0.000000E+00
