 
             +---------------------------------------------------+
             |                                                   |
             |                   WANNIER90                       |
             |                                                   |
             +---------------------------------------------------+
             |                                                   |
             |        Welcome to the Maximally-Localized         |
             |        Generalized Wannier Functions code         |
             |            http://www.wannier.org                 |
             |                                                   |
             |  Wannier90 Authors:                               |
             |    Arash A. Mostofi   (Imperial College London)   |
             |    Jonathan R. Yates  (University of Oxford)      |
             |    Young-Su Lee       (KIST, S. Korea)            |
             |                                                   |
             |  Wannier90 Contributors:                          |
             |    Matthew Shelley    (Imperial College London)   |
             |    Nicolas Poilvert   (MIT)                       |
             |                                                   |
             |  Wannier77 Authors:                               |
             |    Nicola Marzari     (University of Oxford)      |
             |    Ivo Souza          (UC Berkeley)               |
             |    David Vanderbilt   (Rutgers University)        |
             |                                                   |
             |  Please cite                                      |
             |                                                   |
             |  [ref] "Wannier90: A Tool for Obtaining Maximally |
             |         Localised Wannier Functions"              |
             |        A. A. Mostofi, J. R. Yates, Y.-S. Lee,     |
             |        I. Souza, D. Vanderbilt and N. Marzari     |
             |        Comput. Phys. Commun. 178, 685 (2008)      |
             |                                                   |
             |  in any publications arising from the use of      |
             |  this code. For the method please cite            |
             |                                                   |
             |  [ref] "Maximally Localized Generalised Wannier   |
             |         Functions for Composite Energy Bands"     |
             |         N. Marzari and D. Vanderbilt              |
             |         Phys. Rev. B 56 12847 (1997)              |
             |                                                   |
             |  [ref] "Maximally Localized Wannier Functions     |
             |         for Entangled Energy Bands"               |
             |         I. Souza, N. Marzari and D. Vanderbilt    |
             |         Phys. Rev. B 65 035109 (2001)             |
             |                                                   |
             |                                                   |
             | Copyright (c) 1996-2010                           |
             |        A. A. Mostofi, J. R. Yates, Y.-S. Lee,     |
             |        I. Souza, D. Vanderbilt and N. Marzari     |
             |                                                   |
             |        Release: 1.2        24th Jan 2010          |
             |                                                   |
             | This program is free software; you can            |
             | redistribute it and/or modify it under the terms  |
             | of the GNU General Public License as published by |
             | the Free Software Foundation; either version 2 of |
             | the License, or (at your option) any later version|
             |                                                   |
             | This program is distributed in the hope that it   |
             | will be useful, but WITHOUT ANY WARRANTY; without |
             | even the implied warranty of MERCHANTABILITY or   |
             | FITNESS FOR A PARTICULAR PURPOSE. See the GNU     |
             | General Public License for more details.          |
             |                                                   |
             | You should have received a copy of the GNU General|
             | Public License along with this program; if not,   |
             | write to the Free Software Foundation, Inc.,      |
             | 675 Mass Ave, Cambridge, MA 02139, USA.           |
             |                                                   |
             +---------------------------------------------------+
             |    Execution started on 30Oct2016 at 00:36:44     |
             +---------------------------------------------------+
 
                                    ------
                                    SYSTEM
                                    ------
 
                              Lattice Vectors (Ang)
                    a_1     3.651000   0.000000   0.000000
                    a_2    -1.825500   3.161859   0.000000
                    a_3     0.000000   0.000000   6.015000
 
                   Unit Cell Volume:      69.43684  (Ang^3)
 
                        Reciprocal-Space Vectors (Ang^-1)
                    b_1     1.720949   0.993590   0.000000
                    b_2     0.000000   1.987181   0.000000
                    b_3     0.000000   0.000000   1.044586
  
 *----------------------------------------------------------------------------*
 |   Site       Fractional Coordinate          Cartesian Coordinate (Ang)     |
 +----------------------------------------------------------------------------+
 | Sn   1   0.00000   0.00000   0.00000   |    0.00000   0.00000   0.00000    |
 | S    1   0.33333   0.66667   0.24520   |    0.00000   2.10790   1.47488    |
 | S    2   0.66667   0.33333   0.75480   |    1.82550   1.05395   4.54012    |
 *----------------------------------------------------------------------------*
  
                                ------------
                                K-POINT GRID
                                ------------
  
             Grid size =  6 x  6 x  6      Total points =  216
  
  
 *---------------------------------- MAIN ------------------------------------*
 |  Number of Wannier Functions               :                64             |
 |  Number of input Bloch states              :                64             |
 |  Output verbosity (1=low, 5=high)          :                 1             |
 |  Timing Level (1=low, 5=high)              :                 1             |
 |  Optimisation (0=memory, 3=speed)          :                 3             |
 |  Length Unit                               :               Ang             |
 |  Post-processing setup (write *.nnkp)      :                 F             |
 |  Using Gamma-only branch of algorithms     :                 F             |
 *----------------------------------------------------------------------------*
 *------------------------------- WANNIERISE ---------------------------------*
 |  Total number of iterations                :               100             |
 |  Number of CG steps before reset           :                 5             |
 |  Trial step length for line search         :             2.000             |
 |  Convergence tolerence                     :         0.100E-09             |
 |  Convergence window                        :                -1             |
 |  Iterations between writing output         :                 1             |
 |  Iterations between backing up to disk     :               100             |
 |  Write r^2_nm to file                      :                 F             |
 |  Write xyz WF centres to file              :                 F             |
 |  Use guiding centre to control phases      :                 F             |
 *----------------------------------------------------------------------------*
 *-------------------------------- PLOTTING ----------------------------------*
 |  Plotting interpolated bandstructure       :                 T             |
 |   Number of K-path sections                :                 7             |
 |   Divisions along first K-path section     :                51             |
 |   Output format                            :          'gnuplot             |
 |   Output mode                              :               s-k             |
 *----------------------------------------------------------------------------*
 |   K-space path sections:                                                   |
 |    From:  G    0.000  0.000  0.000     To:  A    0.000  0.000  0.500       |
 |    From:  A    0.000  0.000  0.500     To:  H    0.333  0.333  0.500       |
 |    From:  H    0.333  0.333  0.500     To:  K    0.333  0.333  0.000       |
 |    From:  K    0.333  0.333  0.000     To:  G    0.000  0.000  0.000       |
 |    From:  G    0.000  0.000  0.000     To:  M    0.500  0.000  0.000       |
 |    From:  M    0.500  0.000  0.000     To:  L    0.500  0.000  0.500       |
 |    From:  L    0.500  0.000  0.500     To:  H    0.333  0.333  0.500       |
 *----------------------------------------------------------------------------*
 Time to read parameters        0.028 (sec)

 *---------------------------------- K-MESH ----------------------------------*
 +----------------------------------------------------------------------------+
 |                    Distance to Nearest-Neighbour Shells                    |
 |                    ------------------------------------                    |
 |          Shell             Distance (Ang^-1)          Multiplicity         |
 |          -----             -----------------          ------------         |
 |             1                   0.174098                      2            |
 |             2                   0.331197                      6            |
 |             3                   0.348195                      2            |
 |             4                   0.374168                     12            |
 |             5                   0.480553                     12            |
 |             6                   0.522293                      2            |
 |             7                   0.573650                      6            |
 |             8                   0.599486                     12            |
 |             9                   0.618451                     12            |
 |            10                   0.662394                      6            |
 |            11                   0.671054                     12            |
 |            12                   0.684891                     12            |
 +----------------------------------------------------------------------------+
 | The b-vectors are chosen automatically                                     |
 | The following shells are used:   1,  2                                     |
 +----------------------------------------------------------------------------+
 |                        Shell   # Nearest-Neighbours                        |
 |                        -----   --------------------                        |
 |                          1               2                                 |
 |                          2               6                                 |
 +----------------------------------------------------------------------------+
 | Completeness relation is fully satisfied [Eq. (B1), PRB 56, 12847 (1997)]  |
 +----------------------------------------------------------------------------+
 |                  b_k Vectors (Ang^-1) and Weights (Ang^2)                  |
 |                  ----------------------------------------                  |
 |            No.         b_k(x)      b_k(y)      b_k(z)        w_b           |
 |            ---        --------------------------------     --------        |
 |             1         0.000000    0.000000    0.174098    16.496204        |
 |             2         0.000000    0.000000   -0.174098    16.496204        |
 |             3         0.286825    0.165598    0.000000     3.038830        |
 |             4        -0.286825   -0.165598    0.000000     3.038830        |
 |             5        -0.286825    0.165598    0.000000     3.038830        |
 |             6         0.286825   -0.165598    0.000000     3.038830        |
 |             7         0.000000   -0.331197    0.000000     3.038830        |
 |             8         0.000000    0.331197    0.000000     3.038830        |
 +----------------------------------------------------------------------------+
 |                           b_k Directions (Ang^-1)                          |
 |                           -----------------------                          |
 |            No.           x           y           z                         |
 |            ---        --------------------------------                     |
 |             1         0.000000    0.000000    0.174098                     |
 |             2         0.286825    0.165598    0.000000                     |
 |             3        -0.286825    0.165598    0.000000                     |
 |             4         0.000000   -0.331197    0.000000                     |
 +----------------------------------------------------------------------------+
  
 *============================================================================*
 |                              MEMORY ESTIMATE                               |
 |         Maximum RAM allocated during each phase of the calculation         |
 *============================================================================*
 |                            Wannierise:          274.75 Mb                  |
 *----------------------------------------------------------------------------*
  
 Starting a new Wannier90 calculation ...

 Time to get kmesh              0.084 (sec)

 Reading overlaps from wannier90.mmn    : File generated by VASP: SnS2

 Reading projections from wannier90.amn : File generated by VASP: SnS2

 Time to read overlaps         20.728 (sec)

 Writing checkpoint file wannier90.chk... done

 
 *------------------------------- WANNIERISE ---------------------------------*
 +--------------------------------------------------------------------+<-- CONV
 | Iter  Delta Spread     RMS Gradient      Spread (Ang^2)      Time  |<-- CONV
 +--------------------------------------------------------------------+<-- CONV
 
 ------------------------------------------------------------------------------
 Initial State
  WF centre and spread    1  (  1.758451,  0.174498,  0.113555 )     7.71563874
  WF centre and spread    2  (  1.257130,  1.325100,  1.322260 )     4.65535962
  WF centre and spread    3  ( -0.320580,  2.793481,  3.597759 )    12.68515199
  WF centre and spread    4  (  1.765959,  1.012026,  3.679909 )     8.47186892
  WF centre and spread    5  (  1.163840,  2.499505,  4.828373 )     4.05837891
  WF centre and spread    6  (  1.887464,  0.981469,  0.145661 )    13.26686372
  WF centre and spread    7  ( -0.583796,  3.267368,  2.552847 )    10.89793534
  WF centre and spread    8  (  0.341956,  1.336361,  1.206669 )     3.41384917
  WF centre and spread    9  (  0.814409,  2.781979,  0.250025 )     2.49005872
  WF centre and spread   10  (  0.471428,  0.819563,  3.808629 )    17.35057222
  WF centre and spread   11  (  2.003773,  0.542195,  4.134544 )    10.75139164
  WF centre and spread   12  (  1.796900,  2.216688,  5.806974 )     5.08361066
  WF centre and spread   13  (  2.558915,  2.371643,  5.587345 )     6.81142844
  WF centre and spread   14  (  1.065251,  2.380326,  3.107938 )     8.41911665
  WF centre and spread   15  (  0.473265,  2.560756,  4.012107 )     9.39760613
  WF centre and spread   16  (  1.246911,  0.756974,  5.697447 )     8.05235050
  WF centre and spread   17  (  2.281113,  1.704887,  1.129357 )     2.85955765
  WF centre and spread   18  (  0.180717,  0.876047,  5.384868 )     5.63218777
  WF centre and spread   19  (  2.031061,  0.883473,  2.255406 )     3.52703249
  WF centre and spread   20  (  2.287682,  0.841517,  4.649961 )    12.83565583
  WF centre and spread   21  (  0.460239,  3.216343,  4.614365 )     7.82835943
  WF centre and spread   22  (  0.732358,  0.213366,  4.140215 )    23.84094939
  WF centre and spread   23  (  1.773071, -0.072623,  1.871055 )     2.51977711
  WF centre and spread   24  (  2.477699,  0.718768,  0.523486 )     9.78168123
  WF centre and spread   25  (  3.198470,  0.324198,  5.311548 )     2.33372508
  WF centre and spread   26  (  3.137645,  0.388713,  1.242242 )     2.32528299
  WF centre and spread   27  (  0.342590,  0.575896,  0.652294 )     2.48048408
  WF centre and spread   28  (  1.945100,  1.820917,  4.592306 )     6.07269371
  WF centre and spread   29  (  0.698107,  0.857040,  4.571118 )     9.52597621
  WF centre and spread   30  ( -1.023217,  2.650048,  2.609006 )    11.11451660
  WF centre and spread   31  (  2.202984,  1.654705,  3.902649 )    14.29420629
  WF centre and spread   32  (  2.438887,  1.094269,  4.439796 )    25.60675915
  WF centre and spread   33  (  0.775615,  1.921058,  0.739121 )     4.03704810
  WF centre and spread   34  (  0.375864,  2.413330,  5.614194 )     5.04732468
  WF centre and spread   35  ( -0.159651,  1.322369,  4.253699 )     9.02711064
  WF centre and spread   36  (  1.855419,  1.431530,  2.813952 )     8.80842927
  WF centre and spread   37  ( -0.488432,  1.519875,  5.319536 )    11.02024580
  WF centre and spread   38  (  1.708332,  1.975327,  3.740299 )    19.10251500
  WF centre and spread   39  (  2.585359,  1.135382,  5.879540 )    10.28403467
  WF centre and spread   40  ( -0.541461,  1.296664,  6.104354 )     9.56106266
  WF centre and spread   41  (  0.341241,  1.478332,  2.590055 )     2.36787199
  WF centre and spread   42  (  1.279924,  0.532262,  4.332671 )    12.60398214
  WF centre and spread   43  (  1.238304,  0.114125,  0.772424 )     3.07438346
  WF centre and spread   44  ( -0.265258,  1.645287,  0.915252 )     5.20788291
  WF centre and spread   45  ( -0.619071,  2.146717,  1.946777 )     1.98176682
  WF centre and spread   46  (  0.788123,  0.252955,  5.117486 )     3.37025888
  WF centre and spread   47  (  0.626944,  2.575133,  1.497360 )     1.48824304
  WF centre and spread   48  (  0.675690,  1.048103,  0.067720 )     5.23324526
  WF centre and spread   49  (  1.448277,  2.572780,  2.006366 )     3.24847952
  WF centre and spread   50  ( -0.035640, -0.044983,  4.362393 )    16.17425691
  WF centre and spread   51  (  3.178815,  0.711297,  5.908298 )     4.80942711
  WF centre and spread   52  (  1.064034,  1.521398,  4.303705 )     5.74951484
  WF centre and spread   53  (  1.359903,  1.615282,  5.505597 )     6.10227583
  WF centre and spread   54  (  2.929918,  1.001867,  2.948709 )    11.75893754
  WF centre and spread   55  (  1.976389,  2.380664,  4.028359 )    23.46680101
  WF centre and spread   56  (  3.030324,  0.387427,  3.779459 )    20.89504020
  WF centre and spread   57  (  0.189193,  0.523398,  2.346933 )     5.96385622
  WF centre and spread   58  ( -0.248148,  2.738000,  4.832363 )     9.32445221
  WF centre and spread   59  ( -1.077398,  2.620320,  4.631895 )    10.58156612
  WF centre and spread   60  ( -0.404933,  2.155156,  1.209726 )     4.24517541
  WF centre and spread   61  ( -0.568364,  2.440402,  0.244968 )     3.62061367
  WF centre and spread   62  (  3.345557,  0.269207,  0.394560 )     1.52737162
  WF centre and spread   63  (  1.938388,  0.847821,  4.831030 )     4.17130005
  WF centre and spread   64  (  2.152772,  1.546330,  5.170807 )     7.27016884
  Sum of centres and spreads ( 73.321810, 91.662308,209.951322 )   527.22466880
 
      0     0.527E+03     0.0000000000      527.2246678568      23.13  <-- CONV
        O_D=      8.9585220 O_OD=    407.6970289 O_TOT=    527.2246679 <-- SPRD
 ------------------------------------------------------------------------------
 Cycle:      1
  WF centre and spread    1  (  1.713014,  0.123671,  0.134849 )     6.54989377
  WF centre and spread    2  (  1.253302,  1.326056,  1.339483 )     4.25040602
  WF centre and spread    3  ( -0.265526,  2.777275,  3.613318 )    10.66318086
  WF centre and spread    4  (  1.764601,  1.001963,  3.688148 )     7.25147424
  WF centre and spread    5  (  1.178272,  2.505256,  4.870066 )     3.50960706
  WF centre and spread    6  (  1.875190,  0.962534,  0.151555 )    10.83427526
  WF centre and spread    7  ( -0.535021,  3.287443,  2.475762 )     9.44382295
  WF centre and spread    8  (  0.324294,  1.345345,  1.212606 )     2.95317876
  WF centre and spread    9  (  0.832712,  2.792089,  0.263243 )     2.18877105
  WF centre and spread   10  (  0.501202,  0.846936,  3.848721 )    14.97909969
  WF centre and spread   11  (  2.006785,  0.537476,  4.144359 )     8.89079552
  WF centre and spread   12  (  1.792753,  2.238775,  5.847307 )     4.04848816
  WF centre and spread   13  (  2.566481,  2.381542,  5.644751 )     5.54682396
  WF centre and spread   14  (  1.062428,  2.356604,  3.027977 )     7.30675164
  WF centre and spread   15  (  0.487678,  2.571552,  4.064812 )     7.94948803
  WF centre and spread   16  (  1.235235,  0.753092,  5.698359 )     6.72321306
  WF centre and spread   17  (  2.288206,  1.726430,  1.129327 )     2.75587457
  WF centre and spread   18  (  0.173721,  0.845985,  5.414304 )     4.63335607
  WF centre and spread   19  (  2.042010,  0.860085,  2.230283 )     3.34706477
  WF centre and spread   20  (  2.262701,  0.822134,  4.703241 )     9.54449586
  WF centre and spread   21  (  0.462951,  3.227839,  4.661650 )     6.61616326
  WF centre and spread   22  (  0.722213,  0.275127,  4.184306 )    20.92684410
  WF centre and spread   23  (  1.774915, -0.113754,  1.847708 )     2.26576256
  WF centre and spread   24  (  2.510451,  0.672005,  0.542403 )     7.86397531
  WF centre and spread   25  (  3.212409,  0.310933,  5.329285 )     1.96197086
  WF centre and spread   26  (  3.146102,  0.371063,  1.219626 )     2.31599355
  WF centre and spread   27  (  0.330393,  0.556464,  0.654963 )     2.15818188
  WF centre and spread   28  (  1.932952,  1.816039,  4.616781 )     5.04041764
  WF centre and spread   29  (  0.698584,  0.812477,  4.658481 )     8.18143032
  WF centre and spread   30  ( -0.989966,  2.661936,  2.549594 )     9.37355336
  WF centre and spread   31  (  2.162889,  1.688373,  3.906431 )    11.50064211
  WF centre and spread   32  (  2.385301,  1.073470,  4.431041 )    21.03323816
  WF centre and spread   33  (  0.762466,  1.927119,  0.765428 )     3.66809914
  WF centre and spread   34  (  0.399792,  2.424246,  5.643481 )     4.54899456
  WF centre and spread   35  ( -0.148196,  1.340629,  4.273792 )     7.83051785
  WF centre and spread   36  (  1.856010,  1.393296,  2.713239 )     7.51194461
  WF centre and spread   37  ( -0.489675,  1.514002,  5.357466 )     9.31748673
  WF centre and spread   38  (  1.646747,  1.936883,  3.700154 )    15.44489225
  WF centre and spread   39  (  2.609291,  1.070641,  5.900730 )     8.60643079
  WF centre and spread   40  ( -0.537867,  1.240413,  6.138789 )     7.87460282
  WF centre and spread   41  (  0.332505,  1.499257,  2.558715 )     2.20021318
  WF centre and spread   42  (  1.272197,  0.542904,  4.346026 )    10.41708028
  WF centre and spread   43  (  1.207004,  0.102267,  0.779957 )     2.74511590
  WF centre and spread   44  ( -0.260100,  1.666522,  0.943027 )     4.19727104
  WF centre and spread   45  ( -0.598043,  2.139384,  1.939753 )     1.69591442
  WF centre and spread   46  (  0.789685,  0.245679,  5.134022 )     2.91234840
  WF centre and spread   47  (  0.607137,  2.559603,  1.499627 )     1.27778653
  WF centre and spread   48  (  0.650929,  1.022138,  0.102947 )     4.38586773
  WF centre and spread   49  (  1.448059,  2.569742,  1.977843 )     3.08703970
  WF centre and spread   50  ( -0.064978, -0.057832,  4.468119 )    13.86493323
  WF centre and spread   51  (  3.204325,  0.659373,  5.927279 )     3.80394810
  WF centre and spread   52  (  1.070903,  1.503258,  4.338341 )     4.87458986
  WF centre and spread   53  (  1.362576,  1.628193,  5.502383 )     5.19493265
  WF centre and spread   54  (  2.928132,  1.043511,  2.881048 )     9.48698235
  WF centre and spread   55  (  1.916368,  2.354978,  4.099069 )    20.68988804
  WF centre and spread   56  (  3.010440,  0.371234,  3.692728 )    17.87549095
  WF centre and spread   57  (  0.180133,  0.550721,  2.264551 )     5.15836750
  WF centre and spread   58  ( -0.207308,  2.743893,  4.895105 )     7.84614925
  WF centre and spread   59  ( -1.068429,  2.623972,  4.672213 )     8.93217958
  WF centre and spread   60  ( -0.403613,  2.169481,  1.222799 )     3.37845054
  WF centre and spread   61  ( -0.580327,  2.433252,  0.282359 )     3.18509742
  WF centre and spread   62  (  3.358747,  0.260100,  0.374683 )     1.35168602
  WF centre and spread   63  (  1.930488,  0.839642,  4.869963 )     3.43701376
  WF centre and spread   64  (  2.154692,  1.528733,  5.181484 )     6.09377339
  Sum of centres and spreads ( 73.249317, 91.261450,210.551857 )   445.50332299
 
      1    -0.817E+02    10.2336053184      445.5033220001      37.62  <-- CONV
        O_D=     11.2093910 O_OD=    323.7248141 O_TOT=    445.5033220 <-- SPRD
 Delta: O_D=  0.2250869E+01 O_OD= -0.8397221E+02 O_TOT= -0.8172135E+02 <-- DLTA
 ------------------------------------------------------------------------------
 Cycle:      2
  WF centre and spread    1  (  1.676463,  0.093597,  0.143564 )     6.10261655
  WF centre and spread    2  (  1.250737,  1.325794,  1.347775 )     4.07746419
  WF centre and spread    3  ( -0.235776,  2.767611,  3.607726 )    10.10951758
  WF centre and spread    4  (  1.766746,  0.995801,  3.692468 )     6.73753284
  WF centre and spread    5  (  1.188972,  2.513012,  4.898163 )     3.25567363
  WF centre and spread    6  (  1.871839,  0.950911,  0.151683 )    10.01277943
  WF centre and spread    7  ( -0.503785,  3.302785,  2.426036 )     8.98135218
  WF centre and spread    8  (  0.313200,  1.354337,  1.215837 )     2.71366351
  WF centre and spread    9  (  0.844323,  2.798442,  0.271364 )     2.03339200
  WF centre and spread   10  (  0.527743,  0.855478,  3.832301 )    14.32721904
  WF centre and spread   11  (  2.014896,  0.534805,  4.146896 )     8.20764083
  WF centre and spread   12  (  1.789993,  2.256070,  5.862675 )     3.50469448
  WF centre and spread   13  (  2.564402,  2.389587,  5.671195 )     4.97740347
  WF centre and spread   14  (  1.060590,  2.344888,  2.979619 )     6.89667587
  WF centre and spread   15  (  0.500067,  2.580939,  4.091785 )     7.48307975
  WF centre and spread   16  (  1.226216,  0.754074,  5.703444 )     6.26414342
  WF centre and spread   17  (  2.294025,  1.742530,  1.125057 )     2.70920497
  WF centre and spread   18  (  0.168657,  0.822723,  5.432129 )     4.16312492
  WF centre and spread   19  (  2.051939,  0.843286,  2.215089 )     3.27678926
  WF centre and spread   20  (  2.256832,  0.813002,  4.720952 )     8.27700847
  WF centre and spread   21  (  0.468678,  3.235858,  4.691401 )     6.17096625
  WF centre and spread   22  (  0.725522,  0.285131,  4.163915 )    18.33691565
  WF centre and spread   23  (  1.775422, -0.142759,  1.834736 )     2.12862840
  WF centre and spread   24  (  2.530873,  0.636593,  0.544290 )     7.03213131
  WF centre and spread   25  (  3.222031,  0.304849,  5.345820 )     1.74746951
  WF centre and spread   26  (  3.152499,  0.357339,  1.202360 )     2.36050225
  WF centre and spread   27  (  0.322719,  0.544009,  0.652543 )     1.99848786
  WF centre and spread   28  (  1.923870,  1.814055,  4.625348 )     4.62393549
  WF centre and spread   29  (  0.700794,  0.785091,  4.700562 )     7.65114285
  WF centre and spread   30  ( -0.967739,  2.666449,  2.517670 )     8.74425061
  WF centre and spread   31  (  2.156935,  1.704828,  3.919261 )    10.75381364
  WF centre and spread   32  (  2.373013,  1.060149,  4.451113 )    18.40073482
  WF centre and spread   33  (  0.751400,  1.928707,  0.778136 )     3.48703732
  WF centre and spread   34  (  0.415180,  2.432209,  5.664451 )     4.33969623
  WF centre and spread   35  ( -0.137294,  1.357928,  4.284622 )     7.40303487
  WF centre and spread   36  (  1.854063,  1.366469,  2.665551 )     7.10466015
  WF centre and spread   37  ( -0.480498,  1.513355,  5.389276 )     8.79428312
  WF centre and spread   38  (  1.625712,  1.931653,  3.692892 )    14.52033048
  WF centre and spread   39  (  2.628445,  1.026552,  5.902495 )     7.99219759
  WF centre and spread   40  ( -0.524776,  1.197294,  6.150688 )     7.20052776
  WF centre and spread   41  (  0.324983,  1.515570,  2.535273 )     2.09316552
  WF centre and spread   42  (  1.273202,  0.549057,  4.348683 )     9.67004624
  WF centre and spread   43  (  1.185543,  0.094870,  0.781032 )     2.57187376
  WF centre and spread   44  ( -0.257124,  1.680932,  0.951561 )     3.70875914
  WF centre and spread   45  ( -0.583245,  2.134605,  1.935121 )     1.56014611
  WF centre and spread   46  (  0.789477,  0.242948,  5.147410 )     2.72760077
  WF centre and spread   47  (  0.592878,  2.548246,  1.503227 )     1.15935694
  WF centre and spread   48  (  0.636575,  1.001177,  0.115395 )     4.02555955
  WF centre and spread   49  (  1.447774,  2.567046,  1.961626 )     3.01930416
  WF centre and spread   50  ( -0.081503, -0.053464,  4.532925 )    13.00296087
  WF centre and spread   51  (  3.222847,  0.622472,  5.937107 )     3.26143716
  WF centre and spread   52  (  1.075499,  1.493012,  4.357478 )     4.48978044
  WF centre and spread   53  (  1.367086,  1.639825,  5.495672 )     4.78606475
  WF centre and spread   54  (  2.931144,  1.064555,  2.847054 )     8.71112027
  WF centre and spread   55  (  1.874358,  2.340377,  4.103639 )    18.62050823
  WF centre and spread   56  (  2.987716,  0.364397,  3.653491 )    16.60940329
  WF centre and spread   57  (  0.176924,  0.569065,  2.215402 )     4.82600956
  WF centre and spread   58  ( -0.181337,  2.752182,  4.930749 )     7.25935544
  WF centre and spread   59  ( -1.064439,  2.627575,  4.700213 )     8.39011641
  WF centre and spread   60  ( -0.403412,  2.179847,  1.223342 )     2.94900990
  WF centre and spread   61  ( -0.591382,  2.426539,  0.303332 )     2.95196567
  WF centre and spread   62  (  3.368625,  0.253560,  0.360437 )     1.24336470
  WF centre and spread   63  (  1.927049,  0.832878,  4.892233 )     3.09959966
  WF centre and spread   64  (  2.158504,  1.516785,  5.180740 )     5.58811358
  Sum of centres and spreads ( 73.322672, 91.009488,210.726034 )   411.22634470
 
      2    -0.343E+02    10.9722042066      411.2263437039      51.70  <-- CONV
        O_D=      4.9487994 O_OD=    295.7084273 O_TOT=    411.2263437 <-- SPRD
 Delta: O_D= -0.6260592E+01 O_OD= -0.2801639E+02 O_TOT= -0.3427698E+02 <-- DLTA
 ------------------------------------------------------------------------------
 Cycle:      3
  WF centre and spread    1  (  1.639186,  0.068487,  0.151676 )     5.54852179
  WF centre and spread    2  (  1.250375,  1.325445,  1.350715 )     3.91042055
  WF centre and spread    3  ( -0.219123,  2.761350,  3.593131 )     9.35303240
  WF centre and spread    4  (  1.770265,  0.991433,  3.691607 )     6.08061331
  WF centre and spread    5  (  1.198927,  2.521907,  4.925721 )     2.98492798
  WF centre and spread    6  (  1.872645,  0.941619,  0.156208 )     9.00821806
  WF centre and spread    7  ( -0.480583,  3.312801,  2.377872 )     8.24861173
  WF centre and spread    8  (  0.304886,  1.364431,  1.219719 )     2.50812094
  WF centre and spread    9  (  0.853788,  2.803474,  0.280024 )     1.90100264
  WF centre and spread   10  (  0.548910,  0.866240,  3.825886 )    13.21417367
  WF centre and spread   11  (  2.020880,  0.534400,  4.151162 )     7.34784050
  WF centre and spread   12  (  1.788869,  2.272362,  5.872918 )     3.02544045
  WF centre and spread   13  (  2.557943,  2.396565,  5.690359 )     4.41638317
  WF centre and spread   14  (  1.057996,  2.338879,  2.930299 )     6.33564985
  WF centre and spread   15  (  0.514375,  2.591089,  4.113975 )     6.81437526
  WF centre and spread   16  (  1.216030,  0.758369,  5.711020 )     5.67103204
  WF centre and spread   17  (  2.299943,  1.757700,  1.118927 )     2.66317460
  WF centre and spread   18  (  0.164421,  0.800555,  5.445000 )     3.69531041
  WF centre and spread   19  (  2.062322,  0.828833,  2.199460 )     3.19991444
  WF centre and spread   20  (  2.251244,  0.810280,  4.737253 )     6.72379045
  WF centre and spread   21  (  0.476124,  3.242497,  4.718091 )     5.60450933
  WF centre and spread   22  (  0.731472,  0.283149,  4.155327 )    16.87519254
  WF centre and spread   23  (  1.775180, -0.168398,  1.824693 )     1.98494005
  WF centre and spread   24  (  2.549480,  0.605512,  0.544910 )     6.14963842
  WF centre and spread   25  (  3.230914,  0.300259,  5.361435 )     1.57234362
  WF centre and spread   26  (  3.158956,  0.344471,  1.184064 )     2.37145373
  WF centre and spread   27  (  0.316120,  0.533386,  0.648789 )     1.85320508
  WF centre and spread   28  (  1.915186,  1.813720,  4.632056 )     4.14272277
  WF centre and spread   29  (  0.698784,  0.761738,  4.740476 )     6.91472477
  WF centre and spread   30  ( -0.950229,  2.667196,  2.490039 )     7.84371694
  WF centre and spread   31  (  2.156329,  1.717790,  3.929540 )     9.64520350
  WF centre and spread   32  (  2.353413,  1.048383,  4.498402 )    16.49515323
  WF centre and spread   33  (  0.739854,  1.929809,  0.790096 )     3.29353856
  WF centre and spread   34  (  0.429101,  2.439614,  5.686684 )     4.09520019
  WF centre and spread   35  ( -0.128302,  1.370351,  4.295111 )     6.81440376
  WF centre and spread   36  (  1.853466,  1.344329,  2.623442 )     6.51198038
  WF centre and spread   37  ( -0.463395,  1.511233,  5.420096 )     8.10915913
  WF centre and spread   38  (  1.605346,  1.935918,  3.692570 )    13.12424201
  WF centre and spread   39  (  2.646949,  0.983118,  5.897808 )     7.28346328
  WF centre and spread   40  ( -0.505584,  1.160405,  6.160064 )     6.42185280
  WF centre and spread   41  (  0.317162,  1.531513,  2.510334 )     2.00802430
  WF centre and spread   42  (  1.272527,  0.551470,  4.347928 )     8.73979490
  WF centre and spread   43  (  1.166859,  0.088080,  0.781130 )     2.41448391
  WF centre and spread   44  ( -0.253957,  1.694385,  0.961285 )     3.22235675
  WF centre and spread   45  ( -0.570615,  2.131540,  1.931633 )     1.43651797
  WF centre and spread   46  (  0.788982,  0.242014,  5.161273 )     2.52295461
  WF centre and spread   47  (  0.580750,  2.538633,  1.506913 )     1.07026978
  WF centre and spread   48  (  0.623918,  0.981127,  0.125482 )     3.64095973
  WF centre and spread   49  (  1.447698,  2.564749,  1.946224 )     2.94894843
  WF centre and spread   50  ( -0.096591, -0.042853,  4.581799 )    11.94889879
  WF centre and spread   51  (  3.241456,  0.587516,  5.944780 )     2.75852972
  WF centre and spread   52  (  1.077548,  1.484272,  4.374578 )     4.08539336
  WF centre and spread   53  (  1.371983,  1.652096,  5.491948 )     4.37962042
  WF centre and spread   54  (  2.939356,  1.078053,  2.815807 )     7.80272628
  WF centre and spread   55  (  1.845235,  2.321142,  4.104086 )    17.18596579
  WF centre and spread   56  (  2.968202,  0.368205,  3.615864 )    14.94916173
  WF centre and spread   57  (  0.177646,  0.585132,  2.174142 )     4.40828479
  WF centre and spread   58  ( -0.160852,  2.760531,  4.957170 )     6.55806295
  WF centre and spread   59  ( -1.063975,  2.635600,  4.720715 )     7.68590913
  WF centre and spread   60  ( -0.403546,  2.191071,  1.225938 )     2.52273882
  WF centre and spread   61  ( -0.601944,  2.419002,  0.322652 )     2.73964222
  WF centre and spread   62  (  3.378052,  0.247414,  0.346193 )     1.15421165
  WF centre and spread   63  (  1.924745,  0.825621,  4.910788 )     2.76779293
  WF centre and spread   64  (  2.162814,  1.508380,  5.178878 )     4.99954801
  Sum of centres and spreads ( 73.395919, 90.815392,210.874162 )   373.70799533
 
      3    -0.375E+02     9.1555999775      373.7079943178      65.79  <-- CONV
        O_D=      5.2659824 O_OD=    257.8728949 O_TOT=    373.7079943 <-- SPRD
 Delta: O_D=  0.3171830E+00 O_OD= -0.3783553E+02 O_TOT= -0.3751835E+02 <-- DLTA
 ------------------------------------------------------------------------------
 Cycle:      4
  WF centre and spread    1  (  1.604713,  0.050678,  0.158883 )     5.26230954
  WF centre and spread    2  (  1.250527,  1.324902,  1.351357 )     3.82214309
  WF centre and spread    3  ( -0.211304,  2.756230,  3.570228 )     8.91498873
  WF centre and spread    4  (  1.771083,  0.988469,  3.690623 )     5.69523354
  WF centre and spread    5  (  1.206868,  2.530346,  4.947930 )     2.85727731
  WF centre and spread    6  (  1.876427,  0.937147,  0.162381 )     8.57330621
  WF centre and spread    7  ( -0.469321,  3.317850,  2.341865 )     7.88544658
  WF centre and spread    8  (  0.298598,  1.374542,  1.225139 )     2.38235384
  WF centre and spread    9  (  0.860867,  2.806695,  0.287002 )     1.81884914
  WF centre and spread   10  (  0.561256,  0.875899,  3.825175 )    12.67254496
  WF centre and spread   11  (  2.026238,  0.534567,  4.155820 )     6.87933564
  WF centre and spread   12  (  1.788412,  2.286708,  5.879602 )     2.72887807
  WF centre and spread   13  (  2.549936,  2.401692,  5.704155 )     4.09971604
  WF centre and spread   14  (  1.053764,  2.339068,  2.891039 )     6.00686147
  WF centre and spread   15  (  0.528061,  2.600064,  4.128333 )     6.45194411
  WF centre and spread   16  (  1.206136,  0.763674,  5.713431 )     5.42246562
  WF centre and spread   17  (  2.305018,  1.770036,  1.112069 )     2.65213108
  WF centre and spread   18  (  0.161448,  0.783093,  5.454825 )     3.45167182
  WF centre and spread   19  (  2.071259,  0.817464,  2.185344 )     3.15335481
  WF centre and spread   20  (  2.251089,  0.810993,  4.741171 )     5.95361789
  WF centre and spread   21  (  0.484694,  3.247421,  4.736681 )     5.34946808
  WF centre and spread   22  (  0.741536,  0.280483,  4.154229 )    15.52841798
  WF centre and spread   23  (  1.774645, -0.189025,  1.817581 )     1.87982863
  WF centre and spread   24  (  2.567086,  0.581741,  0.545239 )     5.71283175
  WF centre and spread   25  (  3.238415,  0.297272,  5.374009 )     1.46611580
  WF centre and spread   26  (  3.164537,  0.333667,  1.167728 )     2.37198590
  WF centre and spread   27  (  0.311200,  0.525200,  0.644671 )     1.76953517
  WF centre and spread   28  (  1.907774,  1.814019,  4.634908 )     3.90374379
  WF centre and spread   29  (  0.694127,  0.745630,  4.771388 )     6.52898867
  WF centre and spread   30  ( -0.939682,  2.666573,  2.471718 )     7.38613543
  WF centre and spread   31  (  2.160404,  1.726527,  3.934442 )     9.12435091
  WF centre and spread   32  (  2.332056,  1.038396,  4.530923 )    15.27284350
  WF centre and spread   33  (  0.728777,  1.931266,  0.801279 )     3.17163431
  WF centre and spread   34  (  0.440556,  2.445516,  5.704696 )     4.00246636
  WF centre and spread   35  ( -0.122920,  1.378418,  4.300990 )     6.51953037
  WF centre and spread   36  (  1.853853,  1.329059,  2.588811 )     6.17296754
  WF centre and spread   37  ( -0.445607,  1.509782,  5.444243 )     7.75886639
  WF centre and spread   38  (  1.591856,  1.949701,  3.682213 )    12.25830212
  WF centre and spread   39  (  2.662125,  0.948524,  5.892800 )     6.94162697
  WF centre and spread   40  ( -0.482879,  1.133876,  6.165260 )     6.03394425
  WF centre and spread   41  (  0.310210,  1.544933,  2.487905 )     1.95961658
  WF centre and spread   42  (  1.275780,  0.552890,  4.342765 )     8.23077558
  WF centre and spread   43  (  1.152139,  0.082435,  0.779448 )     2.32863208
  WF centre and spread   44  ( -0.252525,  1.705951,  0.969906 )     2.95749174
  WF centre and spread   45  ( -0.561315,  2.129599,  1.928880 )     1.37605322
  WF centre and spread   46  (  0.788379,  0.242245,  5.172278 )     2.41669262
  WF centre and spread   47  (  0.571643,  2.531455,  1.509724 )     1.00977598
  WF centre and spread   48  (  0.613497,  0.964785,  0.133789 )     3.44388430
  WF centre and spread   49  (  1.448296,  2.562492,  1.933253 )     2.91502639
  WF centre and spread   50  ( -0.109990, -0.029149,  4.574512 )    11.46211118
  WF centre and spread   51  (  3.257867,  0.558791,  5.950175 )     2.44925237
  WF centre and spread   52  (  1.078146,  1.477922,  4.388166 )     3.86482630
  WF centre and spread   53  (  1.375887,  1.663401,  5.491100 )     4.18492393
  WF centre and spread   54  (  2.950544,  1.085280,  2.792438 )     7.39411928
  WF centre and spread   55  (  1.829871,  2.318705,  4.103205 )    16.07713217
  WF centre and spread   56  (  2.949070,  0.377781,  3.570756 )    13.91150504
  WF centre and spread   57  (  0.179999,  0.597397,  2.146845 )     4.18489400
  WF centre and spread   58  ( -0.148166,  2.766451,  4.975173 )     6.23986880
  WF centre and spread   59  ( -1.065483,  2.645249,  4.733830 )     7.35417668
  WF centre and spread   60  ( -0.405198,  2.201240,  1.229172 )     2.28943514
  WF centre and spread   61  ( -0.610539,  2.412218,  0.339118 )     2.63365224
  WF centre and spread   62  (  3.386107,  0.241964,  0.333910 )     1.08942508
  WF centre and spread   63  (  1.924470,  0.819116,  4.924309 )     2.58845672
  WF centre and spread   64  (  2.167512,  1.503268,  5.174741 )     4.67195440
  Sum of centres and spreads ( 73.459831, 90.720582,210.875577 )   352.87169519
 
      4    -0.208E+02     6.9585120192      352.8716941708      80.01  <-- CONV
        O_D=      3.8107507 O_OD=    238.4918265 O_TOT=    352.8716942 <-- SPRD
 Delta: O_D= -0.1455232E+01 O_OD= -0.1938107E+02 O_TOT= -0.2083630E+02 <-- DLTA
 ------------------------------------------------------------------------------
 Cycle:      5
  WF centre and spread    1  (  1.594713,  0.046198,  0.161036 )     5.16429836
  WF centre and spread    2  (  1.250432,  1.324696,  1.351371 )     3.79645180
  WF centre and spread    3  ( -0.209895,  2.754653,  3.563495 )     8.76730626
  WF centre and spread    4  (  1.771029,  0.987902,  3.690727 )     5.57553553
  WF centre and spread    5  (  1.208981,  2.532835,  4.954239 )     2.80842418
  WF centre and spread    6  (  1.877718,  0.936204,  0.164748 )     8.42385695
  WF centre and spread    7  ( -0.467629,  3.318830,  2.332850 )     7.76405746
  WF centre and spread    8  (  0.296987,  1.377569,  1.226770 )     2.34103803
  WF centre and spread    9  (  0.862747,  2.807374,  0.288909 )     1.79151101
  WF centre and spread   10  (  0.563180,  0.877924,  3.830349 )    12.51005107
  WF centre and spread   11  (  2.027871,  0.534719,  4.157785 )     6.73311770
  WF centre and spread   12  (  1.788382,  2.290758,  5.881728 )     2.63388917
  WF centre and spread   13  (  2.547542,  2.403109,  5.708445 )     3.99509674
  WF centre and spread   14  (  1.052123,  2.339830,  2.881669 )     5.89835408
  WF centre and spread   15  (  0.531775,  2.602739,  4.133900 )     6.34024313
  WF centre and spread   16  (  1.203135,  0.764945,  5.714072 )     5.33072557
  WF centre and spread   17  (  2.306387,  1.773297,  1.110068 )     2.64319711
  WF centre and spread   18  (  0.160693,  0.778260,  5.457711 )     3.36583201
  WF centre and spread   19  (  2.073775,  0.814465,  2.181391 )     3.12703501
  WF centre and spread   20  (  2.251657,  0.811063,  4.742351 )     5.71408096
  WF centre and spread   21  (  0.487180,  3.248630,  4.741865 )     5.26591669
  WF centre and spread   22  (  0.743284,  0.278943,  4.153117 )    15.28465291
  WF centre and spread   23  (  1.774489, -0.194495,  1.815679 )     1.84538761
  WF centre and spread   24  (  2.572022,  0.575450,  0.546039 )     5.56147229
  WF centre and spread   25  (  3.240559,  0.296540,  5.377700 )     1.42777922
  WF centre and spread   26  (  3.166146,  0.330697,  1.163405 )     2.36407542
  WF centre and spread   27  (  0.309996,  0.523087,  0.643368 )     1.74079870
  WF centre and spread   28  (  1.905654,  1.813860,  4.635484 )     3.81992062
  WF centre and spread   29  (  0.692577,  0.741576,  4.780130 )     6.39288649
  WF centre and spread   30  ( -0.937741,  2.665989,  2.467862 )     7.25216081
  WF centre and spread   31  (  2.161442,  1.728224,  3.935827 )     8.95460355
  WF centre and spread   32  (  2.325832,  1.034531,  4.542265 )    14.99482553
  WF centre and spread   33  (  0.725653,  1.931791,  0.804381 )     3.13147678
  WF centre and spread   34  (  0.443764,  2.446984,  5.709520 )     3.96546828
  WF centre and spread   35  ( -0.121810,  1.380132,  4.302372 )     6.42008293
  WF centre and spread   36  (  1.854040,  1.325316,  2.579400 )     6.05374149
  WF centre and spread   37  ( -0.440329,  1.508949,  5.450438 )     7.64197784
  WF centre and spread   38  (  1.588516,  1.953573,  3.680860 )    12.01951736
  WF centre and spread   39  (  2.666227,  0.939171,  5.891406 )     6.82190921
  WF centre and spread   40  ( -0.475704,  1.127429,  6.166975 )     5.90984825
  WF centre and spread   41  (  0.308263,  1.548577,  2.481665 )     1.93775337
  WF centre and spread   42  (  1.277206,  0.553368,  4.342390 )     8.06742627
  WF centre and spread   43  (  1.148165,  0.080909,  0.778866 )     2.30013748
  WF centre and spread   44  ( -0.252313,  1.709009,  0.972223 )     2.87896818
  WF centre and spread   45  ( -0.558958,  2.129074,  1.928104 )     1.35525893
  WF centre and spread   46  (  0.788129,  0.242342,  5.175303 )     2.37946981
  WF centre and spread   47  (  0.569378,  2.529676,  1.510423 )     0.99060128
  WF centre and spread   48  (  0.610699,  0.960327,  0.136141 )     3.37519806
  WF centre and spread   49  (  1.448512,  2.561745,  1.929617 )     2.90024793
  WF centre and spread   50  ( -0.117729, -0.028091,  4.650464 )    11.26356825
  WF centre and spread   51  (  3.262459,  0.551274,  5.951708 )     2.34684436
  WF centre and spread   52  (  1.078276,  1.476114,  4.392315 )     3.78901758
  WF centre and spread   53  (  1.376963,  1.666664,  5.491460 )     4.11610488
  WF centre and spread   54  (  2.953454,  1.086839,  2.788150 )     7.25203452
  WF centre and spread   55  (  1.826681,  2.319482,  4.103718 )    15.84924934
  WF centre and spread   56  (  2.942779,  0.379911,  3.565841 )    13.62629049
  WF centre and spread   57  (  0.180901,  0.600506,  2.140535 )     4.11377213
  WF centre and spread   58  ( -0.145195,  2.767632,  4.980200 )     6.13459664
  WF centre and spread   59  ( -1.065807,  2.648379,  4.737391 )     7.24109950
  WF centre and spread   60  ( -0.405827,  2.203951,  1.230126 )     2.22110089
  WF centre and spread   61  ( -0.612795,  2.410389,  0.343775 )     2.59786747
  WF centre and spread   62  (  3.388289,  0.240460,  0.330578 )     1.06784729
  WF centre and spread   63  (  1.924529,  0.817249,  4.928095 )     2.52867864
  WF centre and spread   64  (  2.168761,  1.502057,  5.173779 )     4.57152770
  Sum of centres and spreads ( 73.468221, 90.691591,210.984577 )   346.49726509
 
      5    -0.637E+01     6.3288542570      346.4972640628      94.12  <-- CONV
        O_D=      3.7552158 O_OD=    232.1729313 O_TOT=    346.4972641 <-- SPRD
 Delta: O_D= -0.5553488E-01 O_OD= -0.6318895E+01 O_TOT= -0.6374430E+01 <-- DLTA
 ------------------------------------------------------------------------------
 Cycle:      6
  WF centre and spread    1  (  1.564563,  0.033791,  0.166661 )     4.94787816
  WF centre and spread    2  (  1.249947,  1.324164,  1.350656 )     3.76067127
  WF centre and spread    3  ( -0.207373,  2.749972,  3.541850 )     8.37752423
  WF centre and spread    4  (  1.770285,  0.986374,  3.690993 )     5.27947932
  WF centre and spread    5  (  1.215277,  2.540408,  4.972748 )     2.69628531
  WF centre and spread    6  (  1.880900,  0.934985,  0.170175 )     8.07395108
  WF centre and spread    7  ( -0.464533,  3.320063,  2.306035 )     7.47969366
  WF centre and spread    8  (  0.292502,  1.387081,  1.231906 )     2.25540476
  WF centre and spread    9  (  0.867988,  2.808628,  0.294249 )     1.74358430
  WF centre and spread   10  (  0.568848,  0.882475,  3.836222 )    12.12417737
  WF centre and spread   11  (  2.033183,  0.535408,  4.164244 )     6.35522297
  WF centre and spread   12  (  1.788305,  2.302607,  5.887663 )     2.43941444
  WF centre and spread   13  (  2.539705,  2.407299,  5.720374 )     3.77264763
  WF centre and spread   14  (  1.047057,  2.342768,  2.853914 )     5.64411244
  WF centre and spread   15  (  0.543012,  2.610201,  4.148404 )     6.07374846
  WF centre and spread   16  (  1.194023,  0.768109,  5.715519 )     5.11283549
  WF centre and spread   17  (  2.310407,  1.782406,  1.103622 )     2.64418029
  WF centre and spread   18  (  0.158717,  0.764339,  5.465756 )     3.16939949
  WF centre and spread   19  (  2.081152,  0.806049,  2.169826 )     3.07351684
  WF centre and spread   20  (  2.254388,  0.811338,  4.744025 )     5.11842730
  WF centre and spread   21  (  0.495400,  3.251791,  4.756266 )     5.08636267
  WF centre and spread   22  (  0.747842,  0.271554,  4.146118 )    14.51380542
  WF centre and spread   23  (  1.774023, -0.210160,  1.810351 )     1.77421204
  WF centre and spread   24  (  2.587499,  0.558248,  0.548469 )     5.23748384
  WF centre and spread   25  (  3.246960,  0.294569,  5.388841 )     1.35313604
  WF centre and spread   26  (  3.171074,  0.321675,  1.150776 )     2.35431336
  WF centre and spread   27  (  0.306894,  0.517189,  0.639022 )     1.68493318
  WF centre and spread   28  (  1.899217,  1.812963,  4.635914 )     3.62201408
  WF centre and spread   29  (  0.687496,  0.730242,  4.805927 )     6.06142388
  WF centre and spread   30  ( -0.933475,  2.663558,  2.457840 )     6.94557178
  WF centre and spread   31  (  2.165171,  1.732043,  3.939119 )     8.52915110
  WF centre and spread   32  (  2.305713,  1.021191,  4.579953 )    14.22369897
  WF centre and spread   33  (  0.716098,  1.933441,  0.813182 )     3.05143242
  WF centre and spread   34  (  0.453542,  2.450992,  5.722668 )     3.89985365
  WF centre and spread   35  ( -0.119339,  1.383967,  4.305447 )     6.16901706
  WF centre and spread   36  (  1.854870,  1.315249,  2.551863 )     5.77478553
  WF centre and spread   37  ( -0.424510,  1.506155,  5.466952 )     7.37487980
  WF centre and spread   38  (  1.579332,  1.965710,  3.676065 )    11.39148568
  WF centre and spread   39  (  2.677935,  0.912207,  5.886678 )     6.54329770
  WF centre and spread   40  ( -0.453859,  1.110962,  6.170818 )     5.63714264
  WF centre and spread   41  (  0.302707,  1.559081,  2.463283 )     1.89859055
  WF centre and spread   42  (  1.282546,  0.554953,  4.341674 )     7.64864117
  WF centre and spread   43  (  1.136938,  0.076577,  0.776810 )     2.25895182
  WF centre and spread   44  ( -0.252015,  1.717842,  0.978829 )     2.70945242
  WF centre and spread   45  ( -0.552565,  2.127560,  1.925854 )     1.31786266
  WF centre and spread   46  (  0.787187,  0.242698,  5.183907 )     2.30157793
  WF centre and spread   47  (  0.563187,  2.524910,  1.512326 )     0.95256037
  WF centre and spread   48  (  0.602978,  0.947325,  0.142491 )     3.22526701
  WF centre and spread   49  (  1.449308,  2.559251,  1.918872 )     2.89156698
  WF centre and spread   50  ( -0.133048, -0.019656,  4.661782 )    10.34974764
  WF centre and spread   51  (  3.275982,  0.530241,  5.955990 )     2.12563834
  WF centre and spread   52  (  1.078692,  1.470846,  4.404672 )     3.61386868
  WF centre and spread   53  (  1.380216,  1.676260,  5.492808 )     3.97458815
  WF centre and spread   54  (  2.962481,  1.090268,  2.774099 )     6.93182578
  WF centre and spread   55  (  1.820636,  2.322217,  4.106122 )    15.17758760
  WF centre and spread   56  (  2.925575,  0.386446,  3.547728 )    12.88094852
  WF centre and spread   57  (  0.184040,  0.609347,  2.123830 )     3.96358047
  WF centre and spread   58  ( -0.137521,  2.770026,  4.994154 )     5.90507584
  WF centre and spread   59  ( -1.066490,  2.658636,  4.746444 )     6.98032381
  WF centre and spread   60  ( -0.408130,  2.211850,  1.232814 )     2.07708148
  WF centre and spread   61  ( -0.619448,  2.405102,  0.356842 )     2.54377676
  WF centre and spread   62  (  3.394671,  0.236027,  0.320969 )     1.02086697
  WF centre and spread   63  (  1.925263,  0.811578,  4.937789 )     2.41073545
  WF centre and spread   64  (  2.171802,  1.498792,  5.170012 )     4.34686003
  Sum of centres and spreads ( 73.501226, 90.610187,211.057213 )   330.87713209
 
      6    -0.156E+02     5.3253615622      330.8771310516     108.22  <-- CONV
        O_D=      3.2419296 O_OD=    217.0660845 O_TOT=    330.8771311 <-- SPRD
 Delta: O_D= -0.5132862E+00 O_OD= -0.1510685E+02 O_TOT= -0.1562013E+02 <-- DLTA
 ------------------------------------------------------------------------------
 Cycle:      7
  WF centre and spread    1  (  1.548238,  0.027970,  0.169521 )     4.83479556
  WF centre and spread    2  (  1.249533,  1.323643,  1.349618 )     3.73138961
  WF centre and spread    3  ( -0.207258,  2.746757,  3.529011 )     8.12969790
  WF centre and spread    4  (  1.769038,  0.985444,  3.691757 )     5.11904969
  WF centre and spread    5  (  1.218807,  2.544510,  4.981919 )     2.61915278
  WF centre and spread    6  (  1.881369,  0.936616,  0.173339 )     7.88355831
  WF centre and spread    7  ( -0.465414,  3.319204,  2.293054 )     7.31966828
  WF centre and spread    8  (  0.290730,  1.392560,  1.235339 )     2.20225623
  WF centre and spread    9  (  0.870485,  2.808616,  0.296774 )     1.71097539
  WF centre and spread   10  (  0.573464,  0.884710,  3.838145 )    11.83153840
  WF centre and spread   11  (  2.036007,  0.535498,  4.166973 )     6.15811574
  WF centre and spread   12  (  1.788126,  2.308509,  5.890384 )     2.34072948
  WF centre and spread   13  (  2.534727,  2.409415,  5.726608 )     3.66380836
  WF centre and spread   14  (  1.044589,  2.345396,  2.841102 )     5.48154602
  WF centre and spread   15  (  0.549148,  2.613514,  4.154829 )     5.90398042
  WF centre and spread   16  (  1.188660,  0.769107,  5.715612 )     4.99861602
  WF centre and spread   17  (  2.312342,  1.786255,  1.100191 )     2.62886386
  WF centre and spread   18  (  0.157887,  0.757701,  5.469430 )     3.06751777
  WF centre and spread   19  (  2.084899,  0.802070,  2.164393 )     3.03260772
  WF centre and spread   20  (  2.256663,  0.811445,  4.742922 )     4.84983305
  WF centre and spread   21  (  0.500296,  3.251846,  4.762643 )     4.98876891
  WF centre and spread   22  (  0.748477,  0.265804,  4.136883 )    14.11410562
  WF centre and spread   23  (  1.773837, -0.217872,  1.808275 )     1.73277240
  WF centre and spread   24  (  2.596569,  0.550360,  0.549623 )     5.06989635
  WF centre and spread   25  (  3.250438,  0.293631,  5.395001 )     1.30968295
  WF centre and spread   26  (  3.174051,  0.317040,  1.145404 )     2.33028722
  WF centre and spread   27  (  0.305725,  0.514732,  0.636396 )     1.64777853
  WF centre and spread   28  (  1.895718,  1.812218,  4.634617 )     3.51712927
  WF centre and spread   29  (  0.684360,  0.724355,  4.819554 )     5.89050362
  WF centre and spread   30  ( -0.932964,  2.662018,  2.455405 )     6.79447735
  WF centre and spread   31  (  2.166077,  1.732482,  3.940435 )     8.29907277
  WF centre and spread   32  (  2.295616,  1.013524,  4.594605 )    13.82315957
  WF centre and spread   33  (  0.711157,  1.934229,  0.818228 )     2.99986716
  WF centre and spread   34  (  0.458282,  2.452222,  5.728516 )     3.85694847
  WF centre and spread   35  ( -0.120085,  1.384254,  4.305822 )     6.03641372
  WF centre and spread   36  (  1.855633,  1.312103,  2.539743 )     5.62421357
  WF centre and spread   37  ( -0.416965,  1.503632,  5.473689 )     7.25099954
  WF centre and spread   38  (  1.575590,  1.972253,  3.672323 )    11.00230589
  WF centre and spread   39  (  2.683805,  0.899325,  5.883668 )     6.38408400
  WF centre and spread   40  ( -0.442373,  1.105525,  6.171420 )     5.50129849
  WF centre and spread   41  (  0.300131,  1.564383,  2.453976 )     1.86467951
  WF centre and spread   42  (  1.286603,  0.555756,  4.340919 )     7.43740175
  WF centre and spread   43  (  1.131539,  0.074733,  0.775634 )     2.22497513
  WF centre and spread   44  ( -0.252385,  1.722639,  0.982653 )     2.62729476
  WF centre and spread   45  ( -0.549792,  2.126886,  1.925262 )     1.29696288
  WF centre and spread   46  (  0.786371,  0.242705,  5.187926 )     2.25464650
  WF centre and spread   47  (  0.560624,  2.523057,  1.513243 )     0.93151057
  WF centre and spread   48  (  0.599283,  0.941002,  0.145020 )     3.15045357
  WF centre and spread   49  (  1.449860,  2.557629,  1.914004 )     2.87888349
  WF centre and spread   50  ( -0.140603, -0.016039,  4.674783 )     9.93577074
  WF centre and spread   51  (  3.282827,  0.520138,  5.958306 )     2.00421823
  WF centre and spread   52  (  1.078879,  1.468030,  4.410955 )     3.52294974
  WF centre and spread   53  (  1.382303,  1.681772,  5.493146 )     3.90063568
  WF centre and spread   54  (  2.967393,  1.091378,  2.767842 )     6.72829237
  WF centre and spread   55  (  1.817171,  2.324296,  4.116472 )    14.84276640
  WF centre and spread   56  (  2.916785,  0.386893,  3.536174 )    12.40820973
  WF centre and spread   57  (  0.185900,  0.613805,  2.117467 )     3.87485181
  WF centre and spread   58  ( -0.134131,  2.770211,  5.000492 )     5.79720343
  WF centre and spread   59  ( -1.064676,  2.665381,  4.749793 )     6.83722043
  WF centre and spread   60  ( -0.409774,  2.216272,  1.234667 )     2.00974416
  WF centre and spread   61  ( -0.622646,  2.402763,  0.363307 )     2.50616944
  WF centre and spread   62  (  3.397943,  0.233769,  0.316362 )     0.99111664
  WF centre and spread   63  (  1.925726,  0.808173,  4.941767 )     2.34694509
  WF centre and spread   64  (  2.172527,  1.496902,  5.166134 )     4.22441853
  Sum of centres and spreads ( 73.513141, 90.565153,211.089476 )   322.27878655
 
      7    -0.860E+01     3.7494210351      322.2787855144     122.31  <-- CONV
        O_D=      3.0406083 O_OD=    208.6690602 O_TOT=    322.2787855 <-- SPRD
 Delta: O_D= -0.2013213E+00 O_OD= -0.8397024E+01 O_TOT= -0.8598346E+01 <-- DLTA
 ------------------------------------------------------------------------------
 Cycle:      8
  WF centre and spread    1  (  1.502223,  0.012018,  0.178574 )     4.75556351
  WF centre and spread    2  (  1.247620,  1.322536,  1.345999 )     3.78431377
  WF centre and spread    3  ( -0.206567,  2.737715,  3.489076 )     7.78771899
  WF centre and spread    4  (  1.765797,  0.983468,  3.693299 )     4.89689453
  WF centre and spread    5  (  1.229434,  2.557180,  5.007292 )     2.53812652
  WF centre and spread    6  (  1.882601,  0.943851,  0.184755 )     7.74564808
  WF centre and spread    7  ( -0.470147,  3.315317,  2.261535 )     7.20583671
  WF centre and spread    8  (  0.285671,  1.409414,  1.246750 )     2.15960527
  WF centre and spread    9  (  0.877992,  2.808611,  0.304350 )     1.71198406
  WF centre and spread   10  (  0.586217,  0.890592,  3.849246 )    11.54636110
  WF centre and spread   11  (  2.042856,  0.536464,  4.174481 )     5.84817484
  WF centre and spread   12  (  1.787550,  2.325603,  5.896591 )     2.24186134
  WF centre and spread   13  (  2.519275,  2.416332,  5.742284 )     3.57257923
  WF centre and spread   14  (  1.036832,  2.352864,  2.807274 )     5.28882346
  WF centre and spread   15  (  0.566293,  2.621670,  4.170455 )     5.70281660
  WF centre and spread   16  (  1.173309,  0.771867,  5.714004 )     4.94523502
  WF centre and spread   17  (  2.318393,  1.797597,  1.090362 )     2.69038719
  WF centre and spread   18  (  0.155513,  0.738374,  5.479165 )     2.95041255
  WF centre and spread   19  (  2.096087,  0.791435,  2.150274 )     3.03646580
  WF centre and spread   20  (  2.265855,  0.813474,  4.734944 )     4.43649481
  WF centre and spread   21  (  0.515326,  3.251614,  4.780054 )     4.92545847
  WF centre and spread   22  (  0.762037,  0.259497,  4.121651 )    13.68189934
  WF centre and spread   23  (  1.773168, -0.239929,  1.803285 )     1.70254451
  WF centre and spread   24  (  2.623898,  0.528473,  0.554303 )     4.90292490
  WF centre and spread   25  (  3.260270,  0.291300,  5.412175 )     1.27638736
  WF centre and spread   26  (  3.182714,  0.303863,  1.130748 )     2.36515019
  WF centre and spread   27  (  0.302438,  0.507906,  0.629072 )     1.63111751
  WF centre and spread   28  (  1.885495,  1.810654,  4.628537 )     3.39215043
  WF centre and spread   29  (  0.674132,  0.709121,  4.856291 )     5.71447422
  WF centre and spread   30  ( -0.932646,  2.657387,  2.452317 )     6.65799949
  WF centre and spread   31  (  2.172473,  1.732199,  3.943682 )     8.03858735
  WF centre and spread   32  (  2.265970,  0.992817,  4.648857 )    13.51919844
  WF centre and spread   33  (  0.696029,  1.936981,  0.833275 )     2.99458266
  WF centre and spread   34  (  0.471849,  2.456317,  5.744462 )     3.90461323
  WF centre and spread   35  ( -0.122059,  1.385174,  4.306216 )     5.88003401
  WF centre and spread   36  (  1.858291,  1.304117,  2.509020 )     5.49252794
  WF centre and spread   37  ( -0.394927,  1.496970,  5.491387 )     7.26837994
  WF centre and spread   38  (  1.567050,  1.997484,  3.655314 )    10.51549419
  WF centre and spread   39  (  2.701428,  0.863545,  5.876450 )     6.23626588
  WF centre and spread   40  ( -0.409466,  1.092178,  6.173691 )     5.40068824
  WF centre and spread   41  (  0.292481,  1.579728,  2.428022 )     1.86891272
  WF centre and spread   42  (  1.298645,  0.557777,  4.336718 )     7.10010530
  WF centre and spread   43  (  1.116158,  0.069669,  0.771566 )     2.25092171
  WF centre and spread   44  ( -0.253189,  1.735850,  0.993061 )     2.54034946
  WF centre and spread   45  ( -0.542278,  2.124830,  1.923935 )     1.30953611
  WF centre and spread   46  (  0.783206,  0.242799,  5.199422 )     2.23526847
  WF centre and spread   47  (  0.553310,  2.517896,  1.515551 )     0.92743448
  WF centre and spread   48  (  0.588785,  0.922328,  0.151122 )     3.10487521
  WF centre and spread   49  (  1.450803,  2.552362,  1.901292 )     2.95585555
  WF centre and spread   50  ( -0.163873, -0.010495,  4.732645 )     9.55346113
  WF centre and spread   51  (  3.301269,  0.492394,  5.963722 )     1.85078008
  WF centre and spread   52  (  1.079816,  1.460423,  4.427725 )     3.41341819
  WF centre and spread   53  (  1.388220,  1.697976,  5.495270 )     3.87477918
  WF centre and spread   54  (  2.981447,  1.094747,  2.753358 )     6.48950709
  WF centre and spread   55  (  1.811046,  2.340295,  4.129085 )    14.63403573
  WF centre and spread   56  (  2.892794,  0.385209,  3.504251 )    11.63366023
  WF centre and spread   57  (  0.191073,  0.625753,  2.103217 )     3.85124546
  WF centre and spread   58  ( -0.125972,  2.770413,  5.015477 )     5.74079388
  WF centre and spread   59  ( -1.060297,  2.684368,  4.756883 )     6.73335561
  WF centre and spread   60  ( -0.414579,  2.228487,  1.240172 )     1.94615251
  WF centre and spread   61  ( -0.633069,  2.397448,  0.381287 )     2.53760182
  WF centre and spread   62  (  3.407594,  0.227034,  0.303467 )     0.96008275
  WF centre and spread   63  (  1.927943,  0.798643,  4.951490 )     2.28839496
  WF centre and spread   64  (  2.174451,  1.491524,  5.154702 )     4.08135405
  Sum of centres and spreads ( 73.562057, 90.471508,211.204935 )   314.22766333
 
      8    -0.805E+01     2.5361218136      314.2276622834     136.44  <-- CONV
        O_D=      3.2475980 O_OD=    200.4109473 O_TOT=    314.2276623 <-- SPRD
 Delta: O_D=  0.2069897E+00 O_OD= -0.8258113E+01 O_TOT= -0.8051123E+01 <-- DLTA
 ------------------------------------------------------------------------------
 Cycle:      9
  WF centre and spread    1  (  1.427834, -0.012500,  0.194009 )     4.71899460
  WF centre and spread    2  (  1.242883,  1.321468,  1.339930 )     3.92634080
  WF centre and spread    3  ( -0.203264,  2.725160,  3.423463 )     7.34306216
  WF centre and spread    4  (  1.762140,  0.982738,  3.694520 )     4.62781609
  WF centre and spread    5  (  1.249390,  2.580255,  5.049664 )     2.44708831
  WF centre and spread    6  (  1.879542,  0.958632,  0.205130 )     7.61955251
  WF centre and spread    7  ( -0.480313,  3.305416,  2.216882 )     7.10343619
  WF centre and spread    8  (  0.277239,  1.438246,  1.267040 )     2.12337304
  WF centre and spread    9  (  0.891674,  2.808519,  0.317052 )     1.75760366
  WF centre and spread   10  (  0.605801,  0.897555,  3.854034 )    11.18133724
  WF centre and spread   11  (  2.050012,  0.540510,  4.187415 )     5.39591777
  WF centre and spread   12  (  1.787496,  2.354831,  5.906653 )     2.13091746
  WF centre and spread   13  (  2.491010,  2.429842,  5.768534 )     3.48301214
  WF centre and spread   14  (  1.023420,  2.362994,  2.756988 )     5.07384094
  WF centre and spread   15  (  0.593133,  2.631132,  4.194586 )     5.45432246
  WF centre and spread   16  (  1.147451,  0.772909,  5.708641 )     4.94956704
  WF centre and spread   17  (  2.331127,  1.817292,  1.074616 )     2.84327572
  WF centre and spread   18  (  0.151415,  0.704315,  5.495225 )     2.80177106
  WF centre and spread   19  (  2.115934,  0.775143,  2.128711 )     3.09973086
  WF centre and spread   20  (  2.282803,  0.818961,  4.714659 )     3.82306147
  WF centre and spread   21  (  0.543581,  3.249361,  4.810011 )     4.86972256
  WF centre and spread   22  (  0.771737,  0.244666,  4.073117 )    13.01998134
  WF centre and spread   23  (  1.771625, -0.276452,  1.795937 )     1.68066625
  WF centre and spread   24  (  2.671526,  0.494039,  0.564322 )     4.69794000
  WF centre and spread   25  (  3.276571,  0.287501,  5.441163 )     1.25835434
  WF centre and spread   26  (  3.197525,  0.281872,  1.107513 )     2.48884264
  WF centre and spread   27  (  0.296749,  0.496724,  0.615592 )     1.63504860
  WF centre and spread   28  (  1.869168,  1.808674,  4.615372 )     3.22105423
  WF centre and spread   29  (  0.653094,  0.683656,  4.913748 )     5.57481800
  WF centre and spread   30  ( -0.934617,  2.650513,  2.453727 )     6.48657319
  WF centre and spread   31  (  2.187528,  1.729579,  3.950567 )     7.69832856
  WF centre and spread   32  (  2.220054,  0.965475,  4.723045 )    13.06101182
  WF centre and spread   33  (  0.669020,  1.941738,  0.858809 )     3.04124741
  WF centre and spread   34  (  0.494135,  2.464983,  5.770563 )     4.05465086
  WF centre and spread   35  ( -0.125778,  1.386197,  4.302654 )     5.71185102
  WF centre and spread   36  (  1.866061,  1.294294,  2.465041 )     5.43103316
  WF centre and spread   37  ( -0.359310,  1.483969,  5.519248 )     7.44005584
  WF centre and spread   38  (  1.556145,  2.042280,  3.625623 )     9.84254306
  WF centre and spread   39  (  2.732029,  0.806587,  5.863645 )     6.08246391
  WF centre and spread   40  ( -0.358756,  1.073479,  6.177230 )     5.30666807
  WF centre and spread   41  (  0.278674,  1.605592,  2.384161 )     1.93716131
  WF centre and spread   42  (  1.314394,  0.558525,  4.328391 )     6.59922517
  WF centre and spread   43  (  1.090783,  0.061715,  0.762833 )     2.34700033
  WF centre and spread   44  ( -0.253773,  1.756366,  1.010695 )     2.40906801
  WF centre and spread   45  ( -0.531088,  2.121334,  1.922287 )     1.36344028
  WF centre and spread   46  (  0.775972,  0.242075,  5.219790 )     2.24523656
  WF centre and spread   47  (  0.541688,  2.509819,  1.518054 )     0.95002575
  WF centre and spread   48  (  0.570807,  0.888557,  0.159508 )     3.09396606
  WF centre and spread   49  (  1.450242,  2.542761,  1.881180 )     3.13897718
  WF centre and spread   50  ( -0.194201, -0.003531,  4.794806 )     8.74016667
  WF centre and spread   51  (  3.329008,  0.449792,  5.971411 )     1.65895865
  WF centre and spread   52  (  1.082500,  1.447909,  4.452840 )     3.29572135
  WF centre and spread   53  (  1.398703,  1.726168,  5.501473 )     3.90200257
  WF centre and spread   54  (  3.003442,  1.100955,  2.733734 )     6.19945750
  WF centre and spread   55  (  1.796156,  2.365398,  4.160713 )    14.37031716
  WF centre and spread   56  (  2.862686,  0.374782,  3.455027 )    10.46799912
  WF centre and spread   57  (  0.200051,  0.643566,  2.084552 )     3.91042126
  WF centre and spread   58  ( -0.116115,  2.770036,  5.035416 )     5.71035937
  WF centre and spread   59  ( -1.052871,  2.714864,  4.768261 )     6.65964125
  WF centre and spread   60  ( -0.422410,  2.248214,  1.250149 )     1.86271703
  WF centre and spread   61  ( -0.653128,  2.391860,  0.411002 )     2.64896724
  WF centre and spread   62  (  3.424655,  0.215015,  0.281612 )     0.92800566
  WF centre and spread   63  (  1.933241,  0.783246,  4.965339 )     2.21704313
  WF centre and spread   64  (  2.177937,  1.482228,  5.136472 )     3.86576667
  Sum of centres and spreads ( 73.632167, 90.319797,211.334386 )   305.02852167
 
      9    -0.920E+01     2.9977985954      305.0285206176     150.60  <-- CONV
        O_D=      3.4154252 O_OD=    191.0439785 O_TOT=    305.0285206 <-- SPRD
 Delta: O_D=  0.1678272E+00 O_OD= -0.9366969E+01 O_TOT= -0.9199142E+01 <-- DLTA
 ------------------------------------------------------------------------------
 Cycle:     10
  WF centre and spread    1  (  1.369760, -0.030699,  0.206993 )     4.74259662
  WF centre and spread    2  (  1.237936,  1.321358,  1.335784 )     4.05045249
  WF centre and spread    3  ( -0.197081,  2.719019,  3.375662 )     7.04507706
  WF centre and spread    4  (  1.760698,  0.984007,  3.696540 )     4.45281497
  WF centre and spread    5  (  1.267783,  2.600337,  5.084438 )     2.38090774
  WF centre and spread    6  (  1.872187,  0.971231,  0.221379 )     7.54003419
  WF centre and spread    7  ( -0.489986,  3.296121,  2.187832 )     7.06437996
  WF centre and spread    8  (  0.270306,  1.461475,  1.284120 )     2.09712603
  WF centre and spread    9  (  0.904104,  2.808145,  0.327201 )     1.81685570
  WF centre and spread   10  (  0.619627,  0.901727,  3.849081 )    10.92899115
  WF centre and spread   11  (  2.051541,  0.545826,  4.196917 )     5.05908902
  WF centre and spread   12  (  1.788965,  2.379351,  5.915387 )     2.05533440
  WF centre and spread   13  (  2.466150,  2.442616,  5.790431 )     3.42652243
  WF centre and spread   14  (  1.013301,  2.368190,  2.721586 )     4.93651354
  WF centre and spread   15  (  0.612913,  2.633879,  4.212885 )     5.28822245
  WF centre and spread   16  (  1.126497,  0.768293,  5.701577 )     4.98563076
  WF centre and spread   17  (  2.345402,  1.833999,  1.062918 )     2.99143111
  WF centre and spread   18  (  0.147932,  0.674455,  5.508723 )     2.69078914
  WF centre and spread   19  (  2.133856,  0.762361,  2.112118 )     3.16613412
  WF centre and spread   20  (  2.297077,  0.825218,  4.692736 )     3.36984012
  WF centre and spread   21  (  0.569070,  3.246234,  4.835558 )     4.85833329
  WF centre and spread   22  (  0.779543,  0.238551,  4.019107 )    12.40980141
  WF centre and spread   23  (  1.770162, -0.306594,  1.790052 )     1.67248169
  WF centre and spread   24  (  2.711066,  0.467894,  0.573030 )     4.54793681
  WF centre and spread   25  (  3.290223,  0.284183,  5.465655 )     1.25683749
  WF centre and spread   26  (  3.210025,  0.264173,  1.089700 )     2.62311275
  WF centre and spread   27  (  0.291702,  0.487677,  0.603541 )     1.64621973
  WF centre and spread   28  (  1.857216,  1.806209,  4.603215 )     3.08735887
  WF centre and spread   29  (  0.633203,  0.660996,  4.959326 )     5.55323352
  WF centre and spread   30  ( -0.938598,  2.647173,  2.460801 )     6.34378571
  WF centre and spread   31  (  2.200575,  1.725624,  3.957937 )     7.45559103
  WF centre and spread   32  (  2.187157,  0.940140,  4.777954 )    12.54059515
  WF centre and spread   33  (  0.645342,  1.945203,  0.879923 )     3.09040234
  WF centre and spread   34  (  0.511256,  2.473556,  5.791170 )     4.20202625
  WF centre and spread   35  ( -0.128862,  1.387630,  4.296885 )     5.62461385
  WF centre and spread   36  (  1.875629,  1.289558,  2.433721 )     5.45013945
  WF centre and spread   37  ( -0.332398,  1.468182,  5.538737 )     7.64261180
  WF centre and spread   38  (  1.548402,  2.076426,  3.603429 )     9.37451856
  WF centre and spread   39  (  2.758335,  0.762418,  5.851185 )     6.00012082
  WF centre and spread   40  ( -0.323904,  1.061396,  6.179169 )     5.24784877
  WF centre and spread   41  (  0.266359,  1.626757,  2.347149 )     2.03056958
  WF centre and spread   42  (  1.321964,  0.556375,  4.321785 )     6.21253455
  WF centre and spread   43  (  1.069987,  0.055552,  0.754133 )     2.44478480
  WF centre and spread   44  ( -0.253831,  1.771484,  1.025889 )     2.29488792
  WF centre and spread   45  ( -0.523042,  2.118089,  1.920772 )     1.42056324
  WF centre and spread   46  (  0.768712,  0.239381,  5.237154 )     2.26151100
  WF centre and spread   47  (  0.532727,  2.503565,  1.518800 )     0.98261644
  WF centre and spread   48  (  0.555648,  0.858963,  0.164492 )     3.10337795
  WF centre and spread   49  (  1.448223,  2.534061,  1.865814 )     3.31224370
  WF centre and spread   50  ( -0.214699, -0.000280,  4.844894 )     8.07574586
  WF centre and spread   51  (  3.348711,  0.418910,  5.976827 )     1.53214913
  WF centre and spread   52  (  1.087097,  1.437529,  4.470821 )     3.22410075
  WF centre and spread   53  (  1.407749,  1.749820,  5.508586 )     3.94334124
  WF centre and spread   54  (  3.019185,  1.108867,  2.721369 )     6.02687732
  WF centre and spread   55  (  1.782683,  2.392508,  4.170565 )    13.82566052
  WF centre and spread   56  (  2.847427,  0.362543,  3.423088 )     9.62054061
  WF centre and spread   57  (  0.207509,  0.656788,  2.072066 )     4.00359536
  WF centre and spread   58  ( -0.111087,  2.769295,  5.045489 )     5.70399923
  WF centre and spread   59  ( -1.045736,  2.737831,  4.777329 )     6.62071116
  WF centre and spread   60  ( -0.428477,  2.263286,  1.258523 )     1.79689952
  WF centre and spread   61  ( -0.671740,  2.390465,  0.435122 )     2.76230007
  WF centre and spread   62  (  3.439706,  0.204386,  0.263015 )     0.90701605
  WF centre and spread   63  (  1.938642,  0.771327,  4.975336 )     2.15966960
  WF centre and spread   64  (  2.181019,  1.473775,  5.122011 )     3.68939228
  Sum of centres and spreads ( 73.688848, 90.194814,211.415436 )   298.67140018
 
     10    -0.636E+01     3.2499419329      298.6713991290     164.77  <-- CONV
        O_D=      2.6197803 O_OD=    185.4825018 O_TOT=    298.6713991 <-- SPRD
 Delta: O_D= -0.7956449E+00 O_OD= -0.5561477E+01 O_TOT= -0.6357121E+01 <-- DLTA
 ------------------------------------------------------------------------------
 Cycle:     11
  WF centre and spread    1  (  1.309141, -0.049999,  0.222108 )     4.76619941
  WF centre and spread    2  (  1.232777,  1.322371,  1.332300 )     4.14647960
  WF centre and spread    3  ( -0.185367,  2.717465,  3.333081 )     6.73030926
  WF centre and spread    4  (  1.760064,  0.986248,  3.700980 )     4.27496215
  WF centre and spread    5  (  1.289520,  2.622361,  5.121586 )     2.29053111
  WF centre and spread    6  (  1.859847,  0.985267,  0.237637 )     7.42716082
  WF centre and spread    7  ( -0.499985,  3.286394,  2.162640 )     7.01413969
  WF centre and spread    8  (  0.263055,  1.485221,  1.302517 )     2.05893033
  WF centre and spread    9  (  0.918675,  2.807149,  0.338139 )     1.88727046
  WF centre and spread   10  (  0.632733,  0.904993,  3.837689 )    10.66559827
  WF centre and spread   11  (  2.049666,  0.553564,  4.205508 )     4.70050892
  WF centre and spread   12  (  1.792592,  2.406218,  5.925516 )     1.97019799
  WF centre and spread   13  (  2.437976,  2.458197,  5.813047 )     3.37066990
  WF centre and spread   14  (  1.003993,  2.371629,  2.688379 )     4.77583681
  WF centre and spread   15  (  0.631654,  2.631981,  4.232034 )     5.09544304
  WF centre and spread   16  (  1.103108,  0.757867,  5.690984 )     5.02614699
  WF centre and spread   17  (  2.365605,  1.852489,  1.052225 )     3.14471117
  WF centre and spread   18  (  0.144046,  0.640901,  5.523636 )     2.56847167
  WF centre and spread   19  (  2.155576,  0.747813,  2.093766 )     3.21277005
  WF centre and spread   20  (  2.311809,  0.834121,  4.666398 )     2.94601607
  WF centre and spread   21  (  0.598130,  3.242170,  4.864716 )     4.86312780
  WF centre and spread   22  (  0.786994,  0.233468,  3.952975 )    11.81428646
  WF centre and spread   23  (  1.768488, -0.339867,  1.783305 )     1.66735117
  WF centre and spread   24  (  2.752029,  0.441155,  0.581478 )     4.39052736
  WF centre and spread   25  (  3.305457,  0.280234,  5.492912 )     1.26238234
  WF centre and spread   26  (  3.223968,  0.245590,  1.072132 )     2.76693146
  WF centre and spread   27  (  0.285674,  0.478074,  0.589932 )     1.65252185
  WF centre and spread   28  (  1.845976,  1.801342,  4.590457 )     2.92851150
  WF centre and spread   29  (  0.609120,  0.633699,  5.010489 )     5.54994104
  WF centre and spread   30  ( -0.944225,  2.646183,  2.472852 )     6.13067166
  WF centre and spread   31  (  2.212367,  1.719351,  3.968061 )     7.19603197
  WF centre and spread   32  (  2.155326,  0.910980,  4.824290 )    12.21435239
  WF centre and spread   33  (  0.618567,  1.947970,  0.902977 )     3.12226334
  WF centre and spread   34  (  0.527600,  2.483353,  5.812310 )     4.35130478
  WF centre and spread   35  ( -0.132023,  1.390903,  4.289060 )     5.50803799
  WF centre and spread   36  (  1.888848,  1.287925,  2.401831 )     5.46859900
  WF centre and spread   37  ( -0.305545,  1.442764,  5.551879 )     7.84833233
  WF centre and spread   38  (  1.538829,  2.109358,  3.583540 )     8.93629681
  WF centre and spread   39  (  2.787093,  0.717899,  5.835350 )     5.87859593
  WF centre and spread   40  ( -0.295513,  1.052192,  6.181131 )     5.17914452
  WF centre and spread   41  (  0.252605,  1.649820,  2.305763 )     2.14596180
  WF centre and spread   42  (  1.327019,  0.553829,  4.316443 )     5.79701344
  WF centre and spread   43  (  1.047408,  0.049153,  0.744261 )     2.53811134
  WF centre and spread   44  ( -0.253598,  1.786204,  1.043305 )     2.15671296
  WF centre and spread   45  ( -0.515159,  2.113957,  1.918282 )     1.47959204
  WF centre and spread   46  (  0.759926,  0.233191,  5.256160 )     2.25962843
  WF centre and spread   47  (  0.523620,  2.496934,  1.518290 )     1.02259696
  WF centre and spread   48  (  0.538701,  0.826581,  0.166945 )     3.11543177
  WF centre and spread   49  (  1.446104,  2.523125,  1.850689 )     3.49511311
  WF centre and spread   50  ( -0.232860,  0.001778,  4.901305 )     7.58710298
  WF centre and spread   51  (  3.367810,  0.389240,  5.981014 )     1.40765446
  WF centre and spread   52  (  1.095609,  1.426528,  4.488035 )     3.14268145
  WF centre and spread   53  (  1.417945,  1.775811,  5.518693 )     3.98519491
  WF centre and spread   54  (  3.033065,  1.122061,  2.710657 )     5.86313604
  WF centre and spread   55  (  1.771114,  2.418421,  4.186249 )    13.34904637
  WF centre and spread   56  (  2.838086,  0.348191,  3.396357 )     8.84295039
[...]
  WF centre and spread   46  (  0.740976,  0.143623,  5.257381 )     1.86408498
  WF centre and spread   47  (  0.520890,  2.476342,  1.468302 )     1.27992517
  WF centre and spread   48  (  0.381999,  0.809979,  0.072923 )     3.47248472
  WF centre and spread   49  (  1.882141,  2.414513,  1.788053 )     5.21335775
  WF centre and spread   50  ( -0.163076,  0.032892,  5.349596 )     3.65085433
  WF centre and spread   51  (  3.612731,  0.069563,  6.006317 )     0.70006768
  WF centre and spread   52  (  1.273549,  1.327293,  4.436560 )     1.51305928
  WF centre and spread   53  (  1.353966,  2.231902,  5.906530 )     3.46882565
  WF centre and spread   54  (  3.312754,  1.416483,  2.732152 )     5.70695873
  WF centre and spread   55  (  0.809633,  2.068425,  4.949705 )    22.60665440
  WF centre and spread   56  (  2.788739,  0.325297,  3.385259 )     4.07797333
  WF centre and spread   57  (  0.088858,  0.991371,  2.071559 )     4.03288749
  WF centre and spread   58  (  0.027543,  2.683232,  4.802757 )     4.76545510
  WF centre and spread   59  ( -0.816446,  2.757283,  4.528511 )     4.73196980
  WF centre and spread   60  ( -0.440228,  2.412922,  1.246056 )     1.31617796
  WF centre and spread   61  ( -0.986094,  2.621125,  0.554814 )     2.64160669
  WF centre and spread   62  (  3.634933,  0.017793,  0.020076 )     0.50034565
  WF centre and spread   63  (  1.890832,  0.609822,  4.996087 )     1.12728688
  WF centre and spread   64  (  2.133084,  1.351227,  4.973427 )     1.46046645
  Sum of centres and spreads ( 73.856058, 90.080392,212.064955 )   228.24517751
 
     98    -0.117E-01     0.7007124051      228.2451765746    1418.77  <-- CONV
        O_D=      2.2201841 O_OD=    115.4558755 O_TOT=    228.2451766 <-- SPRD
 Delta: O_D= -0.8016693E-02 O_OD= -0.3637024E-02 O_TOT= -0.1165372E-01 <-- DLTA
 ------------------------------------------------------------------------------
 Cycle:     99
  WF centre and spread    1  (  0.759132, -0.153244,  0.302682 )     3.19769869
  WF centre and spread    2  (  1.268295,  1.342468,  1.313863 )     3.80627686
  WF centre and spread    3  ( -0.085885,  2.898434,  3.137236 )     4.43717320
  WF centre and spread    4  (  1.810760,  1.092071,  3.927658 )     1.59956053
  WF centre and spread    5  (  1.521262,  2.682302,  5.277122 )     1.61763057
  WF centre and spread    6  (  1.773093,  1.179404,  0.400883 )     5.21734230
  WF centre and spread    7  ( -0.443196,  3.306854,  1.951105 )     5.89301647
  WF centre and spread    8  (  0.229479,  1.600952,  1.375587 )     1.62702295
  WF centre and spread    9  (  1.201592,  2.701743,  0.512761 )     1.98080333
  WF centre and spread   10  (  0.746579,  1.178087,  3.049896 )     3.67639255
  WF centre and spread   11  (  2.004497,  0.590015,  4.227837 )     1.76880609
  WF centre and spread   12  (  1.845798,  2.790841,  6.019454 )     1.53776674
  WF centre and spread   13  (  2.276976,  2.407937,  5.799855 )     2.12020833
  WF centre and spread   14  (  0.882835,  2.558469,  2.533393 )     4.95530500
  WF centre and spread   15  (  0.773096,  2.359433,  4.116268 )     3.21799206
  WF centre and spread   16  (  1.002219,  0.573314,  5.283708 )     7.41683842
  WF centre and spread   17  (  2.418227,  1.511724,  1.122144 )     4.43832959
  WF centre and spread   18  (  0.106364,  0.528986,  5.584132 )     2.08544212
  WF centre and spread   19  (  2.294011,  0.424538,  1.838236 )     3.03965340
  WF centre and spread   20  (  2.470831,  0.996432,  4.427081 )     1.40593610
  WF centre and spread   21  (  1.114611,  3.131722,  5.532613 )     3.83588903
  WF centre and spread   22  (  0.855245,  0.455206,  3.351558 )     5.95144852
  WF centre and spread   23  (  1.774877, -0.573645,  1.831784 )     1.46623067
  WF centre and spread   24  (  2.881491,  0.164918,  0.522802 )     2.59193429
  WF centre and spread   25  (  3.511420,  0.186048,  5.806796 )     1.05089725
  WF centre and spread   26  (  3.269888,  0.183491,  1.046157 )     2.48483364
  WF centre and spread   27  (  0.296420,  0.468047,  0.563996 )     1.82279681
  WF centre and spread   28  (  1.813088,  1.666003,  4.444357 )     1.76601244
  WF centre and spread   29  (  0.047957,  0.305444,  5.774946 )     3.74252602
  WF centre and spread   30  ( -0.983975,  2.666533,  2.624911 )     4.61851144
  WF centre and spread   31  (  2.284233,  1.592538,  4.110777 )     9.82495485
  WF centre and spread   32  (  1.556819,  1.003169,  4.743881 )     3.15821009
  WF centre and spread   33  (  0.284860,  1.994302,  0.992113 )     1.88934192
  WF centre and spread   34  (  0.294414,  2.496477,  6.080805 )     6.51527298
  WF centre and spread   35  ( -0.227280,  1.421052,  4.122826 )     3.47763167
  WF centre and spread   36  (  2.160040,  1.570716,  2.489845 )     4.81116248
  WF centre and spread   37  ( -0.319100,  1.604662,  5.080593 )     6.03295499
  WF centre and spread   38  (  1.769025,  2.272499,  3.448583 )     4.34863326
  WF centre and spread   39  (  2.720429,  0.718754,  5.856278 )     5.60071265
  WF centre and spread   40  ( -0.097536,  1.079835,  6.524496 )     4.01193584
  WF centre and spread   41  (  0.198852,  1.890866,  1.975778 )     1.64071611
  WF centre and spread   42  (  1.350113,  0.656019,  4.424271 )     1.99820116
  WF centre and spread   43  (  1.165145,  0.006168,  0.945627 )     3.29489676
  WF centre and spread   44  ( -0.265820,  1.789522,  1.179386 )     1.77471574
  WF centre and spread   45  ( -0.501479,  1.998077,  1.842981 )     1.35763098
  WF centre and spread   46  (  0.740986,  0.143597,  5.257384 )     1.86388027
  WF centre and spread   47  (  0.520904,  2.476328,  1.468299 )     1.27992413
  WF centre and spread   48  (  0.381996,  0.810070,  0.072852 )     3.47232029
  WF centre and spread   49  (  1.882267,  2.414503,  1.788007 )     5.21420957
  WF centre and spread   50  ( -0.163027,  0.032902,  5.349550 )     3.65036787
  WF centre and spread   51  (  3.612763,  0.069518,  6.006325 )     0.69995281
  WF centre and spread   52  (  1.273593,  1.327262,  4.436570 )     1.51284900
  WF centre and spread   53  (  1.353957,  2.231905,  5.906525 )     3.46845080
  WF centre and spread   54  (  3.312867,  1.416550,  2.732101 )     5.70691395
  WF centre and spread   55  (  0.806572,  2.068715,  4.949820 )    22.60259405
  WF centre and spread   56  (  2.788723,  0.325341,  3.385325 )     4.07699403
  WF centre and spread   57  (  0.088753,  0.991483,  2.071527 )     4.03276729
  WF centre and spread   58  (  0.027545,  2.683178,  4.802734 )     4.76515114
  WF centre and spread   59  ( -0.816378,  2.757240,  4.528380 )     4.73171930
  WF centre and spread   60  ( -0.440227,  2.412936,  1.246058 )     1.31609854
  WF centre and spread   61  ( -0.986166,  2.621174,  0.554849 )     2.64114449
  WF centre and spread   62  (  3.634951,  0.017772,  0.020056 )     0.50027023
  WF centre and spread   63  (  1.890832,  0.609808,  4.996082 )     1.12723621
  WF centre and spread   64  (  2.133061,  1.351215,  4.973465 )     1.46025505
  Sum of centres and spreads ( 73.853675, 90.080683,212.064971 )   228.23034594
 
     99    -0.148E-01     0.6785079466      228.2303450003    1433.04  <-- CONV
        O_D=      2.2130230 O_OD=    115.4482050 O_TOT=    228.2303450 <-- SPRD
 Delta: O_D= -0.7161044E-02 O_OD= -0.7670530E-02 O_TOT= -0.1483157E-01 <-- DLTA
 ------------------------------------------------------------------------------
 Cycle:    100
  WF centre and spread    1  (  0.759051, -0.153424,  0.302624 )     3.19657224
  WF centre and spread    2  (  1.268418,  1.342640,  1.313937 )     3.80506045
  WF centre and spread    3  ( -0.085848,  2.898703,  3.137045 )     4.43755692
  WF centre and spread    4  (  1.810879,  1.092218,  3.927713 )     1.59787833
  WF centre and spread    5  (  1.521553,  2.681978,  5.276843 )     1.61680450
  WF centre and spread    6  (  1.773125,  1.179171,  0.401033 )     5.21523402
  WF centre and spread    7  ( -0.443616,  3.306641,  1.950607 )     5.88981097
  WF centre and spread    8  (  0.229521,  1.601076,  1.375583 )     1.62766341
  WF centre and spread    9  (  1.202053,  2.701548,  0.513116 )     1.98046495
  WF centre and spread   10  (  0.747213,  1.178610,  3.049437 )     3.67258666
  WF centre and spread   11  (  2.004458,  0.589970,  4.227845 )     1.76732096
  WF centre and spread   12  (  1.845728,  2.791539,  6.019583 )     1.53745946
  WF centre and spread   13  (  2.277230,  2.407521,  5.799693 )     2.11883365
  WF centre and spread   14  (  0.883130,  2.558802,  2.533504 )     4.95371511
  WF centre and spread   15  (  0.773055,  2.359287,  4.116105 )     3.21774683
  WF centre and spread   16  (  1.001494,  0.572705,  5.283473 )     7.42422284
  WF centre and spread   17  (  2.417961,  1.511314,  1.122405 )     4.43782528
  WF centre and spread   18  (  0.106309,  0.529432,  5.583822 )     2.08553861
  WF centre and spread   19  (  2.293827,  0.424213,  1.837929 )     3.04116317
  WF centre and spread   20  (  2.470801,  0.996532,  4.427065 )     1.40507502
  WF centre and spread   21  (  1.114479,  3.131639,  5.532553 )     3.82998738
  WF centre and spread   22  (  0.855051,  0.455136,  3.351486 )     5.94692651
  WF centre and spread   23  (  1.774951, -0.573689,  1.831905 )     1.46588913
  WF centre and spread   24  (  2.881276,  0.164786,  0.522549 )     2.59078533
  WF centre and spread   25  (  3.511671,  0.185805,  5.807196 )     1.05054671
  WF centre and spread   26  (  3.269930,  0.183474,  1.046199 )     2.48395210
  WF centre and spread   27  (  0.296623,  0.468285,  0.564166 )     1.82364335
  WF centre and spread   28  (  1.813264,  1.666013,  4.444413 )     1.76404031
  WF centre and spread   29  (  0.047840,  0.305044,  5.775622 )     3.73240915
  WF centre and spread   30  ( -0.983911,  2.666443,  2.624874 )     4.61773843
  WF centre and spread   31  (  2.284576,  1.592256,  4.111249 )     9.83866974
  WF centre and spread   32  (  1.556619,  1.003539,  4.744043 )     3.15030732
  WF centre and spread   33  (  0.284773,  1.994449,  0.992039 )     1.88821749
  WF centre and spread   34  (  0.294059,  2.496409,  6.080796 )     6.52188514
  WF centre and spread   35  ( -0.227289,  1.420835,  4.122512 )     3.47788574
  WF centre and spread   36  (  2.160687,  1.570465,  2.490132 )     4.81216908
  WF centre and spread   37  ( -0.319213,  1.605100,  5.080068 )     6.02789549
  WF centre and spread   38  (  1.769220,  2.272537,  3.448887 )     4.34376171
  WF centre and spread   39  (  2.720328,  0.718973,  5.856466 )     5.59985690
  WF centre and spread   40  ( -0.097394,  1.079503,  6.524654 )     4.00954606
  WF centre and spread   41  (  0.199038,  1.890960,  1.975780 )     1.63997599
  WF centre and spread   42  (  1.350138,  0.656202,  4.424452 )     1.99595436
  WF centre and spread   43  (  1.165912,  0.006084,  0.946168 )     3.29829513
  WF centre and spread   44  ( -0.265873,  1.789519,  1.179453 )     1.77477904
  WF centre and spread   45  ( -0.501446,  1.997951,  1.842926 )     1.35758665
  WF centre and spread   46  (  0.741033,  0.143484,  5.257397 )     1.86304874
  WF centre and spread   47  (  0.520967,  2.476259,  1.468278 )     1.27989443
  WF centre and spread   48  (  0.381964,  0.810465,  0.072516 )     3.47162140
  WF centre and spread   49  (  1.882845,  2.414439,  1.787816 )     5.21790345
  WF centre and spread   50  ( -0.162818,  0.032946,  5.349393 )     3.64835864
  WF centre and spread   51  (  3.612906,  0.069323,  6.006359 )     0.69945516
  WF centre and spread   52  (  1.273794,  1.327124,  4.436611 )     1.51190350
  WF centre and spread   53  (  1.353919,  2.231884,  5.906508 )     3.46669594
  WF centre and spread   54  (  3.313403,  1.416883,  2.731920 )     5.70691861
  WF centre and spread   55  (  0.804102,  2.071291,  4.948679 )    22.62823871
  WF centre and spread   56  (  2.788657,  0.325534,  3.385642 )     4.07308400
  WF centre and spread   57  (  0.088303,  0.991994,  2.071396 )     4.03210996
  WF centre and spread   58  (  0.027530,  2.682956,  4.802594 )     4.76380445
  WF centre and spread   59  ( -0.816133,  2.757054,  4.527726 )     4.73063449
  WF centre and spread   60  ( -0.440232,  2.413004,  1.246054 )     1.31571268
  WF centre and spread   61  ( -0.986501,  2.621378,  0.555006 )     2.63904317
  WF centre and spread   62  (  3.635028,  0.017679,  0.019968 )     0.49992994
  WF centre and spread   63  (  1.890836,  0.609741,  4.996055 )     1.12698619
  WF centre and spread   64  (  2.132969,  1.351155,  4.973633 )     1.45915983
  Sum of centres and spreads ( 73.854221, 90.082783,212.063501 )   228.20574088
 
    100    -0.246E-01     0.5090913680      228.2057399483    1447.33  <-- CONV
        O_D=      2.2236029 O_OD=    115.4130201 O_TOT=    228.2057399 <-- SPRD
 Delta: O_D=  0.1057987E-01 O_OD= -0.3518492E-01 O_TOT= -0.2460505E-01 <-- DLTA
 ------------------------------------------------------------------------------

 Writing checkpoint file wannier90.chk... done

 Final State
  WF centre and spread    1  (  0.759051, -0.153424,  0.302624 )     3.19657224
  WF centre and spread    2  (  1.268418,  1.342640,  1.313937 )     3.80506045
  WF centre and spread    3  ( -0.085848,  2.898703,  3.137045 )     4.43755692
  WF centre and spread    4  (  1.810879,  1.092218,  3.927713 )     1.59787833
  WF centre and spread    5  (  1.521553,  2.681978,  5.276843 )     1.61680450
  WF centre and spread    6  (  1.773125,  1.179171,  0.401033 )     5.21523402
  WF centre and spread    7  ( -0.443616,  3.306641,  1.950607 )     5.88981097
  WF centre and spread    8  (  0.229521,  1.601076,  1.375583 )     1.62766341
  WF centre and spread    9  (  1.202053,  2.701548,  0.513116 )     1.98046495
  WF centre and spread   10  (  0.747213,  1.178610,  3.049437 )     3.67258666
  WF centre and spread   11  (  2.004458,  0.589970,  4.227845 )     1.76732096
  WF centre and spread   12  (  1.845728,  2.791539,  6.019583 )     1.53745946
  WF centre and spread   13  (  2.277230,  2.407521,  5.799693 )     2.11883365
  WF centre and spread   14  (  0.883130,  2.558802,  2.533504 )     4.95371511
  WF centre and spread   15  (  0.773055,  2.359287,  4.116105 )     3.21774683
  WF centre and spread   16  (  1.001494,  0.572705,  5.283473 )     7.42422284
  WF centre and spread   17  (  2.417961,  1.511314,  1.122405 )     4.43782528
  WF centre and spread   18  (  0.106309,  0.529432,  5.583822 )     2.08553861
  WF centre and spread   19  (  2.293827,  0.424213,  1.837929 )     3.04116317
  WF centre and spread   20  (  2.470801,  0.996532,  4.427065 )     1.40507502
  WF centre and spread   21  (  1.114479,  3.131639,  5.532553 )     3.82998738
  WF centre and spread   22  (  0.855051,  0.455136,  3.351486 )     5.94692651
  WF centre and spread   23  (  1.774951, -0.573689,  1.831905 )     1.46588913
  WF centre and spread   24  (  2.881276,  0.164786,  0.522549 )     2.59078533
  WF centre and spread   25  (  3.511671,  0.185805,  5.807196 )     1.05054671
  WF centre and spread   26  (  3.269930,  0.183474,  1.046199 )     2.48395210
  WF centre and spread   27  (  0.296623,  0.468285,  0.564166 )     1.82364335
  WF centre and spread   28  (  1.813264,  1.666013,  4.444413 )     1.76404031
  WF centre and spread   29  (  0.047840,  0.305044,  5.775622 )     3.73240915
  WF centre and spread   30  ( -0.983911,  2.666443,  2.624874 )     4.61773843
  WF centre and spread   31  (  2.284576,  1.592256,  4.111249 )     9.83866974
  WF centre and spread   32  (  1.556619,  1.003539,  4.744043 )     3.15030732
  WF centre and spread   33  (  0.284773,  1.994449,  0.992039 )     1.88821749
  WF centre and spread   34  (  0.294059,  2.496409,  6.080796 )     6.52188514
  WF centre and spread   35  ( -0.227289,  1.420835,  4.122512 )     3.47788574
  WF centre and spread   36  (  2.160687,  1.570465,  2.490132 )     4.81216908
  WF centre and spread   37  ( -0.319213,  1.605100,  5.080068 )     6.02789549
  WF centre and spread   38  (  1.769220,  2.272537,  3.448887 )     4.34376171
  WF centre and spread   39  (  2.720328,  0.718973,  5.856466 )     5.59985690
  WF centre and spread   40  ( -0.097394,  1.079503,  6.524654 )     4.00954606
  WF centre and spread   41  (  0.199038,  1.890960,  1.975780 )     1.63997599
  WF centre and spread   42  (  1.350138,  0.656202,  4.424452 )     1.99595436
  WF centre and spread   43  (  1.165912,  0.006084,  0.946168 )     3.29829513
  WF centre and spread   44  ( -0.265873,  1.789519,  1.179453 )     1.77477904
  WF centre and spread   45  ( -0.501446,  1.997951,  1.842926 )     1.35758665
  WF centre and spread   46  (  0.741033,  0.143484,  5.257397 )     1.86304874
  WF centre and spread   47  (  0.520967,  2.476259,  1.468278 )     1.27989443
  WF centre and spread   48  (  0.381964,  0.810465,  0.072516 )     3.47162140
  WF centre and spread   49  (  1.882845,  2.414439,  1.787816 )     5.21790345
  WF centre and spread   50  ( -0.162818,  0.032946,  5.349393 )     3.64835864
  WF centre and spread   51  (  3.612906,  0.069323,  6.006359 )     0.69945516
  WF centre and spread   52  (  1.273794,  1.327124,  4.436611 )     1.51190350
  WF centre and spread   53  (  1.353919,  2.231884,  5.906508 )     3.46669594
  WF centre and spread   54  (  3.313403,  1.416883,  2.731920 )     5.70691861
  WF centre and spread   55  (  0.804102,  2.071291,  4.948679 )    22.62823871
  WF centre and spread   56  (  2.788657,  0.325534,  3.385642 )     4.07308400
  WF centre and spread   57  (  0.088303,  0.991994,  2.071396 )     4.03210996
  WF centre and spread   58  (  0.027530,  2.682956,  4.802594 )     4.76380445
  WF centre and spread   59  ( -0.816133,  2.757054,  4.527726 )     4.73063449
  WF centre and spread   60  ( -0.440232,  2.413004,  1.246054 )     1.31571268
  WF centre and spread   61  ( -0.986501,  2.621378,  0.555006 )     2.63904317
  WF centre and spread   62  (  3.635028,  0.017679,  0.019968 )     0.49992994
  WF centre and spread   63  (  1.890836,  0.609741,  4.996055 )     1.12698619
  WF centre and spread   64  (  2.132969,  1.351155,  4.973633 )     1.45915983
  Sum of centres and spreads ( 73.854221, 90.082783,212.063501 )   228.20574088
 
         Spreads (Ang^2)       Omega I      =   110.569116969
        ================       Omega D      =     2.223602904
                               Omega OD     =   115.413020076
    Final Spread (Ang^2)       Omega Total  =   228.205739948
 ------------------------------------------------------------------------------
 Time for wannierise         1429.096 (sec)

 Writing checkpoint file wannier90.chk... done

 *---------------------------------------------------------------------------*
 |                               PLOTTING                                    |
 *---------------------------------------------------------------------------*
 
 
 Calculating interpolated band-structure
 
 Time to calculate interpolated band structure      25.184 (sec)
 
 Time for plotting             25.600 (sec)
 Total Execution Time        1476.936 (sec)

 *===========================================================================*
 |                             TIMING INFORMATION                            |
 *===========================================================================*
 |    Tag                                                Ncalls      Time (s)|
 |---------------------------------------------------------------------------|
 |kmesh: get                                        :         1         0.084|
 |overlap: read                                     :         1        20.728|
 |wann: main                                        :         1      1429.096|
 |plot: main                                        :         1        25.600|
 *---------------------------------------------------------------------------*
 
 All done: wannier90 exiting
