       N       E                     dE             d eps       ncg     rms          ort
SDA:   1    -0.125403835104E+02   -0.12540E+02    0.00000E+00   464   0.615E-01 0.000E+00
CGA:   2    -0.125761934974E+02   -0.35810E-01   -0.35430E-01   464   0.107E-01 0.117E-02
CGA:   3    -0.125826867912E+02   -0.64933E-02   -0.63866E-02   464   0.178E-02 0.318E-03
CGA:   4    -0.125838339103E+02   -0.11471E-02   -0.11336E-02   464   0.374E-03 0.384E-04
CGA:   5    -0.125840254694E+02   -0.19156E-03   -0.18891E-03   464   0.392E-04 0.112E-04
CGA:   6    -0.125840475891E+02   -0.22120E-04   -0.21410E-04   464   0.537E-05 0.280E-05
CGA:   7    -0.125840502204E+02   -0.26313E-05   -0.25385E-05   464   0.734E-06 0.588E-06
CGA:   8    -0.125840506197E+02   -0.39931E-06   -0.38290E-06   464   0.112E-06 0.912E-07
CGA:   9    -0.125840506867E+02   -0.67059E-07   -0.51777E-07   464   0.225E-07 0.354E-07
CGA:  10    -0.125840506848E+02    0.18984E-08   -0.35518E-08   464   0.152E-07 0.237E-07
   1 F= -.12584051E+02 E0= -.12584051E+02  d E =0.000000E+00
