 vasp.5.4.1 24Jun15 (build Feb 06 2016 13:21:38) complex                        
  
 executed on             IFC_2016 date 2016.10.30  12:31:43
 running on   32 total cores
 distrk:  each k-point on    4 cores,    8 groups
 distr:  one band on NCORES_PER_BAND=   1 cores,    4 groups


--------------------------------------------------------------------------------------------------------


 INCAR:
 POTCAR:   PAW_PBE Sn_d 06Sep2000                 
 POTCAR:    PAW_PBE S 17Jan2003                   

 ----------------------------------------------------------------------------- 
|                                                                             |
|           W    W    AA    RRRRR   N    N  II  N    N   GGGG   !!!           |
|           W    W   A  A   R    R  NN   N  II  NN   N  G    G  !!!           |
|           W    W  A    A  R    R  N N  N  II  N N  N  G       !!!           |
|           W WW W  AAAAAA  RRRRR   N  N N  II  N  N N  G  GGG   !            |
|           WW  WW  A    A  R   R   N   NN  II  N   NN  G    G                |
|           W    W  A    A  R    R  N    N  II  N    N   GGGG   !!!           |
|                                                                             |
|      For optimal performance we recommend to set                            |
|        NCORE= 4 - approx SQRT( number of cores)                             |
|      NCORE specifies how many cores store one orbital (NPAR=cpu/NCORE).     |
|      This setting can  greatly improve the performance of VASP for DFT.     |
|      The default, NPAR=number of cores might be grossly inefficient         |
|      on modern multi-core architectures or massively parallel machines.     |
|      Do your own testing !!!!                                               |
|      Unfortunately you need to use the default for GW and RPA calculations. |
|      (for HF NCORE is supported but not extensively tested yet)             |
|                                                                             |
 ----------------------------------------------------------------------------- 


 ----------------------------------------------------------------------------- 
|                                                                             |
|           W    W    AA    RRRRR   N    N  II  N    N   GGGG   !!!           |
|           W    W   A  A   R    R  NN   N  II  NN   N  G    G  !!!           |
|           W    W  A    A  R    R  N N  N  II  N N  N  G       !!!           |
|           W WW W  AAAAAA  RRRRR   N  N N  II  N  N N  G  GGG   !            |
|           WW  WW  A    A  R   R   N   NN  II  N   NN  G    G                |
|           W    W  A    A  R    R  N    N  II  N    N   GGGG   !!!           |
|                                                                             |
|      You have enabled k-point parallelism (KPAR>1).                         |
|      This developmental code was originally  written by Paul Kent at ORNL,  |
|      and carefully double checked in Vienna.                                |
|      GW as well as linear response parallelism added by Martijn Marsman     |
|      and Georg Kresse.                                                      |
|      Carefully verify results versus KPAR=1.                                |
|      Report problems to Paul Kent and Vienna.                               |
|                                                                             |
 ----------------------------------------------------------------------------- 

 POTCAR:   PAW_PBE Sn_d 06Sep2000                 
   VRHFIN =Sn: s2p2                                                             
   LEXCH  = PE                                                                  
   EATOM  =  1893.0782 eV,  139.1373 Ry                                         
                                                                                
   TITEL  = PAW_PBE Sn_d 06Sep2000                                              
   LULTRA =        F    use ultrasoft PP ?                                      
   IUNSCR =        1    unscreen: 0-lin 1-nonlin 2-no                           
   RPACOR =    2.300    partial core radius                                     
   POMASS =  118.710; ZVAL   =   14.000    mass and valenz                      
   RCORE  =    2.500    outmost cutoff radius                                   
   RWIGS  =    2.960; RWIGS  =    1.566    wigner-seitz radius (au A)           
   ENMAX  =  241.090; ENMIN  =  180.817 eV                                      
   ICORE  =        3    local potential                                         
   LCOR   =        T    correct aug charges                                     
   LPAW   =        T    paw PP                                                  
   EAUG   =  439.825                                                            
   DEXC   =    -.001                                                            
   RMAX   =    2.969    core radius for proj-oper                               
   RAUG   =    1.300    factor for augmentation sphere                          
   RDEP   =    2.659    radius for radial grids                                 
   QCUT   =   -4.209; QGAM   =    8.419    optimization parameters              
                                                                                
   Description                                                                  
     l     E      TYP  RCUT    TYP  RCUT                                        
     2   .000     23  2.500                                                     
     2  -.400     23  2.500                                                     
     0   .000     23  2.500                                                     
     0  1.000     23  2.500                                                     
     1   .000     23  2.500                                                     
     1   .000     23  2.500                                                     
     3  -.100      7  2.500                                                     
  local pseudopotential read in
  partial core-charges read in
  atomic valenz-charges read in
  non local Contribution for L=           2  read in
    real space projection operators read in
  non local Contribution for L=           2  read in
    real space projection operators read in
  non local Contribution for L=           0  read in
    real space projection operators read in
  non local Contribution for L=           0  read in
    real space projection operators read in
  non local Contribution for L=           1  read in
    real space projection operators read in
  non local Contribution for L=           1  read in
    real space projection operators read in
    PAW grid and wavefunctions read in
 
   number of l-projection  operators is LMAX  =           6
   number of lm-projection operators is LMMAX =          18
 
 POTCAR:    PAW_PBE S 17Jan2003                   
   VRHFIN =S : s2p4                                                             
   LEXCH  = PE                                                                  
   EATOM  =   276.8230 eV,   20.3459 Ry                                         
                                                                                
   TITEL  = PAW_PBE S 17Jan2003                                                 
   LULTRA =        F    use ultrasoft PP ?                                      
   IUNSCR =        1    unscreen: 0-lin 1-nonlin 2-no                           
   RPACOR =    1.500    partial core radius                                     
   POMASS =   32.066; ZVAL   =    6.000    mass and valenz                      
   RCORE  =    1.900    outmost cutoff radius                                   
   RWIGS  =    2.200; RWIGS  =    1.164    wigner-seitz radius (au A)           
   ENMAX  =  280.000; ENMIN  =  194.016 eV                                      
   ICORE  =        2    local potential                                         
   LCOR   =        T    correct aug charges                                     
   LPAW   =        T    paw PP                                                  
   EAUG   =  335.092                                                            
   DEXC   =     .000                                                            
   RMAX   =    2.867    core radius for proj-oper                               
   RAUG   =    1.300    factor for augmentation sphere                          
   RDEP   =    1.954    radius for radial grids                                 
   QCUT   =   -4.360; QGAM   =    8.721    optimization parameters              
                                                                                
   Description                                                                  
     l     E      TYP  RCUT    TYP  RCUT                                        
     0   .000     23  1.900                                                     
     0   .000     23  1.900                                                     
     1   .000     23  1.900                                                     
     1   .000     23  1.900                                                     
     2   .000     23  1.900                                                     
  local pseudopotential read in
  partial core-charges read in
  atomic valenz-charges read in
  non local Contribution for L=           0  read in
    real space projection operators read in
  non local Contribution for L=           0  read in
    real space projection operators read in
  non local Contribution for L=           1  read in
    real space projection operators read in
  non local Contribution for L=           1  read in
    real space projection operators read in
    PAW grid and wavefunctions read in
 
   number of l-projection  operators is LMAX  =           4
   number of lm-projection operators is LMMAX =           8
 
 PAW_PBE Sn_d 06Sep2000                 :
 energy of atom  1       EATOM=-1893.0782
 kinetic energy error for atom=    0.0047 (will be added to EATOM!!)
  PAW_PBE S 17Jan2003                   :
 energy of atom  2       EATOM= -276.8230
 kinetic energy error for atom=    0.0046 (will be added to EATOM!!)
 
 
 POSCAR: SnS2                                    
  positions in direct lattice
  velocities in cartesian coordinates
 exchange correlation table for  LEXCH =        8
   RHO(1)=    0.500       N(1)  =     2000
   RHO(2)=  100.500       N(2)  =     4000
 


--------------------------------------------------------------------------------------------------------


 ion  position               nearest neighbor table
   1  0.000  0.000  0.000-   3 2.57   2 2.57   3 2.57   3 2.57   2 2.57   2 2.57
   2  0.333  0.667  0.245-   1 2.57   1 2.57   1 2.57
   3  0.667  0.333  0.755-   1 2.57   1 2.57   1 2.57
 
  LATTYP: Found a hexagonal cell.
 ALAT       =     3.6510002172
 C/A-ratio  =     1.6474937393
  
  Lattice vectors:
  
 A1 = (   3.6510000000,   0.0000000000,   0.0000000000)
 A2 = (  -1.8255000000,   3.1618590000,   0.0000000000)
 A3 = (   0.0000000000,   0.0000000000,   6.0150000000)


Analysis of symmetry for initial positions (statically):
=====================================================================
 Subroutine PRICEL returns:
 Original cell was already a primitive cell.
 

 Routine SETGRP: Setting up the symmetry group for a 
 hexagonal supercell.


 Subroutine GETGRP returns: Found 12 space group operations
 (whereof 12 operations were pure point group operations)
 out of a pool of 24 trial point group operations.


The static configuration has the point symmetry D_3d.


Analysis of symmetry for dynamics (positions and initial velocities):
=====================================================================
 Subroutine PRICEL returns:
 Original cell was already a primitive cell.
 

 Routine SETGRP: Setting up the symmetry group for a 
 hexagonal supercell.


 Subroutine GETGRP returns: Found 12 space group operations
 (whereof 12 operations were pure point group operations)
 out of a pool of 24 trial point group operations.


The dynamic configuration has the point symmetry D_3d.


 Subroutine INISYM returns: Found 12 space group operations
 (whereof 12 operations are pure point group operations),
 and found     1 'primitive' translations

 
 
 KPOINTS: Automatic 6x6x6                         

Automatic generation of k-mesh.
Space group operators:
 irot       det(A)        alpha          n_x          n_y          n_z        tau_x        tau_y        tau_z
    1     1.000000     0.000000     1.000000     0.000000     0.000000     0.000000     0.000000     0.000000
    2    -1.000000     0.000000     1.000000     0.000000     0.000000     0.000000     0.000000     0.000000
    3     1.000000   120.000000     0.000000     0.000000    -1.000000     0.000000     0.000000     0.000000
    4    -1.000000   120.000000     0.000000     0.000000    -1.000000     0.000000     0.000000     0.000000
    5     1.000000   120.000000     0.000000     0.000000     1.000000     0.000000     0.000000     0.000000
    6    -1.000000   120.000000     0.000000     0.000000     1.000000     0.000000     0.000000     0.000000
    7     1.000000   180.000000     1.000000     0.000000     0.000000     0.000000     0.000000     0.000000
    8    -1.000000   180.000000     1.000000     0.000000     0.000000     0.000000     0.000000     0.000000
    9     1.000000   180.000000     0.500000    -0.866025     0.000000     0.000000     0.000000     0.000000
   10    -1.000000   180.000000     0.500000    -0.866025     0.000000     0.000000     0.000000     0.000000
   11     1.000000   180.000000    -0.500000    -0.866025     0.000000     0.000000     0.000000     0.000000
   12    -1.000000   180.000000    -0.500000    -0.866025     0.000000     0.000000     0.000000     0.000000
 
 Subroutine IBZKPT returns following result:
 ===========================================
 
 Found     34 irreducible k-points:
 
 Following reciprocal coordinates:
            Coordinates               Weight
  0.000000  0.000000  0.000000      1.000000
  0.166667 -0.000000  0.000000      6.000000
  0.333333  0.000000  0.000000      6.000000
  0.500000 -0.000000  0.000000      3.000000
  0.166667  0.166667  0.000000      6.000000
  0.333333  0.166667  0.000000     12.000000
  0.333333  0.333333  0.000000      2.000000
  0.000000  0.000000  0.166667      2.000000
  0.166667 -0.000000  0.166667      6.000000
  0.333333  0.000000  0.166667      6.000000
  0.500000 -0.000000  0.166667      6.000000
 -0.333333 -0.000000  0.166667      6.000000
 -0.166667  0.000000  0.166667      6.000000
  0.166667  0.166667  0.166667     12.000000
  0.333333  0.166667  0.166667     12.000000
  0.500000  0.166667  0.166667     12.000000
  0.333333  0.333333  0.166667      4.000000
  0.000000  0.000000  0.333333      2.000000
  0.166667 -0.000000  0.333333      6.000000
  0.333333  0.000000  0.333333      6.000000
  0.500000 -0.000000  0.333333      6.000000
 -0.333333 -0.000000  0.333333      6.000000
 -0.166667  0.000000  0.333333      6.000000
  0.166667  0.166667  0.333333     12.000000
  0.333333  0.166667  0.333333     12.000000
  0.500000  0.166667  0.333333     12.000000
  0.333333  0.333333  0.333333      4.000000
  0.000000  0.000000  0.500000      1.000000
  0.166667 -0.000000  0.500000      6.000000
  0.333333  0.000000  0.500000      6.000000
  0.500000 -0.000000  0.500000      3.000000
  0.166667  0.166667  0.500000      6.000000
  0.333333  0.166667  0.500000     12.000000
  0.333333  0.333333  0.500000      2.000000
 
 Following cartesian coordinates:
            Coordinates               Weight
  0.000000  0.000000  0.000000      1.000000
  0.045650  0.026356  0.000000      6.000000
  0.091299  0.052712  0.000000      6.000000
  0.136949  0.079067  0.000000      3.000000
  0.045650  0.079067  0.000000      6.000000
  0.091299  0.105423  0.000000     12.000000
  0.091299  0.158135  0.000000      2.000000
  0.000000  0.000000  0.027709      2.000000
  0.045650  0.026356  0.027709      6.000000
  0.091299  0.052712  0.027709      6.000000
  0.136949  0.079067  0.027709      6.000000
 -0.091299 -0.052712  0.027709      6.000000
 -0.045650 -0.026356  0.027709      6.000000
  0.045650  0.079067  0.027709     12.000000
  0.091299  0.105423  0.027709     12.000000
  0.136949  0.131779  0.027709     12.000000
  0.091299  0.158135  0.027709      4.000000
  0.000000  0.000000  0.055417      2.000000
  0.045650  0.026356  0.055417      6.000000
  0.091299  0.052712  0.055417      6.000000
  0.136949  0.079067  0.055417      6.000000
 -0.091299 -0.052712  0.055417      6.000000
 -0.045650 -0.026356  0.055417      6.000000
  0.045650  0.079067  0.055417     12.000000
  0.091299  0.105423  0.055417     12.000000
  0.136949  0.131779  0.055417     12.000000
  0.091299  0.158135  0.055417      4.000000
  0.000000  0.000000  0.083126      1.000000
  0.045650  0.026356  0.083126      6.000000
  0.091299  0.052712  0.083126      6.000000
  0.136949  0.079067  0.083126      3.000000
  0.045650  0.079067  0.083126      6.000000
  0.091299  0.105423  0.083126     12.000000
  0.091299  0.158135  0.083126      2.000000
 
 TETIRR: Found    281 inequivalent tetrahedra from     1296
 
 Subroutine IBZKPT_HF returns following result:
 ==============================================
 
 Found    216 k-points in 1st BZ
 the following    216 k-points will be used (e.g. in the exchange kernel)
 Following reciprocal coordinates:   # in IRBZ
  0.000000  0.000000  0.000000    0.00462963   1 t-inv F
  0.166667 -0.000000  0.000000    0.00462963   2 t-inv F
  0.333333  0.000000  0.000000    0.00462963   3 t-inv F
  0.500000 -0.000000  0.000000    0.00462963   4 t-inv F
  0.166667  0.166667  0.000000    0.00462963   5 t-inv F
  0.333333  0.166667  0.000000    0.00462963   6 t-inv F
  0.333333  0.333333  0.000000    0.00462963   7 t-inv F
  0.000000  0.000000  0.166667    0.00462963   8 t-inv F
  0.166667 -0.000000  0.166667    0.00462963   9 t-inv F
  0.333333  0.000000  0.166667    0.00462963  10 t-inv F
  0.500000 -0.000000  0.166667    0.00462963  11 t-inv F
 -0.333333 -0.000000  0.166667    0.00462963  12 t-inv F
 -0.166667  0.000000  0.166667    0.00462963  13 t-inv F
  0.166667  0.166667  0.166667    0.00462963  14 t-inv F
  0.333333  0.166667  0.166667    0.00462963  15 t-inv F
  0.500000  0.166667  0.166667    0.00462963  16 t-inv F
  0.333333  0.333333  0.166667    0.00462963  17 t-inv F
  0.000000  0.000000  0.333333    0.00462963  18 t-inv F
  0.166667 -0.000000  0.333333    0.00462963  19 t-inv F
  0.333333  0.000000  0.333333    0.00462963  20 t-inv F
  0.500000 -0.000000  0.333333    0.00462963  21 t-inv F
 -0.333333 -0.000000  0.333333    0.00462963  22 t-inv F
 -0.166667  0.000000  0.333333    0.00462963  23 t-inv F
  0.166667  0.166667  0.333333    0.00462963  24 t-inv F
  0.333333  0.166667  0.333333    0.00462963  25 t-inv F
  0.500000  0.166667  0.333333    0.00462963  26 t-inv F
  0.333333  0.333333  0.333333    0.00462963  27 t-inv F
  0.000000  0.000000  0.500000    0.00462963  28 t-inv F
  0.166667 -0.000000  0.500000    0.00462963  29 t-inv F
  0.333333  0.000000  0.500000    0.00462963  30 t-inv F
  0.500000 -0.000000  0.500000    0.00462963  31 t-inv F
  0.166667  0.166667  0.500000    0.00462963  32 t-inv F
  0.333333  0.166667  0.500000    0.00462963  33 t-inv F
  0.333333  0.333333  0.500000    0.00462963  34 t-inv F
 -0.166667  0.000000  0.000000    0.00462963   2 t-inv F
 -0.166667  0.166667  0.000000    0.00462963   2 t-inv F
  0.166667 -0.166667  0.000000    0.00462963   2 t-inv F
 -0.000000 -0.166667  0.000000    0.00462963   2 t-inv F
  0.000000  0.166667  0.000000    0.00462963   2 t-inv F
 -0.333333 -0.000000  0.000000    0.00462963   3 t-inv F
 -0.333333  0.333333  0.000000    0.00462963   3 t-inv F
  0.333333 -0.333333  0.000000    0.00462963   3 t-inv F
  0.000000 -0.333333  0.000000    0.00462963   3 t-inv F
 -0.000000  0.333333  0.000000    0.00462963   3 t-inv F
 -0.500000  0.500000  0.000000    0.00462963   4 t-inv F
 -0.000000 -0.500000  0.000000    0.00462963   4 t-inv F
 -0.166667 -0.166667  0.000000    0.00462963   5 t-inv F
 -0.333333  0.166667  0.000000    0.00462963   5 t-inv F
  0.333333 -0.166667  0.000000    0.00462963   5 t-inv F
  0.166667 -0.333333  0.000000    0.00462963   5 t-inv F
 -0.166667  0.333333  0.000000    0.00462963   5 t-inv F
 -0.333333 -0.166667  0.000000    0.00462963   6 t-inv F
 -0.500000  0.333333  0.000000    0.00462963   6 t-inv F
  0.500000 -0.333333  0.000000    0.00462963   6 t-inv F
  0.166667 -0.500000  0.000000    0.00462963   6 t-inv F
 -0.166667  0.500000  0.000000    0.00462963   6 t-inv F
  0.333333 -0.500000  0.000000    0.00462963   6 t-inv F
 -0.333333  0.500000  0.000000    0.00462963   6 t-inv F
 -0.500000  0.166667  0.000000    0.00462963   6 t-inv F
  0.500000 -0.166667  0.000000    0.00462963   6 t-inv F
  0.166667  0.333333  0.000000    0.00462963   6 t-inv F
 -0.166667 -0.333333  0.000000    0.00462963   6 t-inv F
 -0.333333 -0.333333  0.000000    0.00462963   7 t-inv F
  0.000000  0.000000 -0.166667    0.00462963   8 t-inv F
 -0.166667  0.000000 -0.166667    0.00462963   9 t-inv F
 -0.166667  0.166667  0.166667    0.00462963   9 t-inv F
  0.166667 -0.166667 -0.166667    0.00462963   9 t-inv F
 -0.000000 -0.166667  0.166667    0.00462963   9 t-inv F
  0.000000  0.166667 -0.166667    0.00462963   9 t-inv F
 -0.333333 -0.000000 -0.166667    0.00462963  10 t-inv F
 -0.333333  0.333333  0.166667    0.00462963  10 t-inv F
  0.333333 -0.333333 -0.166667    0.00462963  10 t-inv F
  0.000000 -0.333333  0.166667    0.00462963  10 t-inv F
 -0.000000  0.333333 -0.166667    0.00462963  10 t-inv F
 -0.500000  0.000000 -0.166667    0.00462963  11 t-inv F
 -0.500000  0.500000  0.166667    0.00462963  11 t-inv F
  0.500000 -0.500000 -0.166667    0.00462963  11 t-inv F
 -0.000000 -0.500000  0.166667    0.00462963  11 t-inv F
  0.000000  0.500000 -0.166667    0.00462963  11 t-inv F
  0.333333  0.000000 -0.166667    0.00462963  12 t-inv F
  0.333333 -0.333333  0.166667    0.00462963  12 t-inv F
 -0.333333  0.333333 -0.166667    0.00462963  12 t-inv F
 -0.000000  0.333333  0.166667    0.00462963  12 t-inv F
  0.000000 -0.333333 -0.166667    0.00462963  12 t-inv F
  0.166667 -0.000000 -0.166667    0.00462963  13 t-inv F
  0.166667 -0.166667  0.166667    0.00462963  13 t-inv F
 -0.166667  0.166667 -0.166667    0.00462963  13 t-inv F
  0.000000  0.166667  0.166667    0.00462963  13 t-inv F
 -0.000000 -0.166667 -0.166667    0.00462963  13 t-inv F
 -0.166667 -0.166667 -0.166667    0.00462963  14 t-inv F
 -0.333333  0.166667  0.166667    0.00462963  14 t-inv F
  0.333333 -0.166667 -0.166667    0.00462963  14 t-inv F
  0.166667 -0.333333  0.166667    0.00462963  14 t-inv F
 -0.166667  0.333333 -0.166667    0.00462963  14 t-inv F
  0.166667 -0.333333 -0.166667    0.00462963  14 t-inv F
 -0.166667  0.333333  0.166667    0.00462963  14 t-inv F
 -0.333333  0.166667 -0.166667    0.00462963  14 t-inv F
  0.333333 -0.166667  0.166667    0.00462963  14 t-inv F
  0.166667  0.166667 -0.166667    0.00462963  14 t-inv F
 -0.166667 -0.166667  0.166667    0.00462963  14 t-inv F
 -0.333333 -0.166667 -0.166667    0.00462963  15 t-inv F
 -0.500000  0.333333  0.166667    0.00462963  15 t-inv F
  0.500000 -0.333333 -0.166667    0.00462963  15 t-inv F
  0.166667 -0.500000  0.166667    0.00462963  15 t-inv F
 -0.166667  0.500000 -0.166667    0.00462963  15 t-inv F
  0.333333 -0.500000 -0.166667    0.00462963  15 t-inv F
 -0.333333  0.500000  0.166667    0.00462963  15 t-inv F
 -0.500000  0.166667 -0.166667    0.00462963  15 t-inv F
  0.500000 -0.166667  0.166667    0.00462963  15 t-inv F
  0.166667  0.333333 -0.166667    0.00462963  15 t-inv F
 -0.166667 -0.333333  0.166667    0.00462963  15 t-inv F
 -0.500000 -0.166667 -0.166667    0.00462963  16 t-inv F
 -0.666667  0.500000  0.166667    0.00462963  16 t-inv F
  0.666667 -0.500000 -0.166667    0.00462963  16 t-inv F
  0.166667 -0.666667  0.166667    0.00462963  16 t-inv F
 -0.166667  0.666667 -0.166667    0.00462963  16 t-inv F
  0.500000 -0.666667 -0.166667    0.00462963  16 t-inv F
 -0.500000  0.666667  0.166667    0.00462963  16 t-inv F
 -0.666667  0.166667 -0.166667    0.00462963  16 t-inv F
  0.666667 -0.166667  0.166667    0.00462963  16 t-inv F
  0.166667  0.500000 -0.166667    0.00462963  16 t-inv F
 -0.166667 -0.500000  0.166667    0.00462963  16 t-inv F
 -0.333333 -0.333333 -0.166667    0.00462963  17 t-inv F
  0.333333 -0.666667 -0.166667    0.00462963  17 t-inv F
 -0.333333  0.666667  0.166667    0.00462963  17 t-inv F
  0.000000  0.000000 -0.333333    0.00462963  18 t-inv F
 -0.166667  0.000000 -0.333333    0.00462963  19 t-inv F
 -0.166667  0.166667  0.333333    0.00462963  19 t-inv F
  0.166667 -0.166667 -0.333333    0.00462963  19 t-inv F
 -0.000000 -0.166667  0.333333    0.00462963  19 t-inv F
  0.000000  0.166667 -0.333333    0.00462963  19 t-inv F
 -0.333333 -0.000000 -0.333333    0.00462963  20 t-inv F
 -0.333333  0.333333  0.333333    0.00462963  20 t-inv F
  0.333333 -0.333333 -0.333333    0.00462963  20 t-inv F
  0.000000 -0.333333  0.333333    0.00462963  20 t-inv F
 -0.000000  0.333333 -0.333333    0.00462963  20 t-inv F
 -0.500000  0.000000 -0.333333    0.00462963  21 t-inv F
 -0.500000  0.500000  0.333333    0.00462963  21 t-inv F
  0.500000 -0.500000 -0.333333    0.00462963  21 t-inv F
 -0.000000 -0.500000  0.333333    0.00462963  21 t-inv F
  0.000000  0.500000 -0.333333    0.00462963  21 t-inv F
  0.333333  0.000000 -0.333333    0.00462963  22 t-inv F
  0.333333 -0.333333  0.333333    0.00462963  22 t-inv F
 -0.333333  0.333333 -0.333333    0.00462963  22 t-inv F
 -0.000000  0.333333  0.333333    0.00462963  22 t-inv F
  0.000000 -0.333333 -0.333333    0.00462963  22 t-inv F
  0.166667 -0.000000 -0.333333    0.00462963  23 t-inv F
  0.166667 -0.166667  0.333333    0.00462963  23 t-inv F
 -0.166667  0.166667 -0.333333    0.00462963  23 t-inv F
  0.000000  0.166667  0.333333    0.00462963  23 t-inv F
 -0.000000 -0.166667 -0.333333    0.00462963  23 t-inv F
 -0.166667 -0.166667 -0.333333    0.00462963  24 t-inv F
 -0.333333  0.166667  0.333333    0.00462963  24 t-inv F
  0.333333 -0.166667 -0.333333    0.00462963  24 t-inv F
  0.166667 -0.333333  0.333333    0.00462963  24 t-inv F
 -0.166667  0.333333 -0.333333    0.00462963  24 t-inv F
  0.166667 -0.333333 -0.333333    0.00462963  24 t-inv F
 -0.166667  0.333333  0.333333    0.00462963  24 t-inv F
 -0.333333  0.166667 -0.333333    0.00462963  24 t-inv F
  0.333333 -0.166667  0.333333    0.00462963  24 t-inv F
  0.166667  0.166667 -0.333333    0.00462963  24 t-inv F
 -0.166667 -0.166667  0.333333    0.00462963  24 t-inv F
 -0.333333 -0.166667 -0.333333    0.00462963  25 t-inv F
 -0.500000  0.333333  0.333333    0.00462963  25 t-inv F
  0.500000 -0.333333 -0.333333    0.00462963  25 t-inv F
  0.166667 -0.500000  0.333333    0.00462963  25 t-inv F
 -0.166667  0.500000 -0.333333    0.00462963  25 t-inv F
  0.333333 -0.500000 -0.333333    0.00462963  25 t-inv F
 -0.333333  0.500000  0.333333    0.00462963  25 t-inv F
 -0.500000  0.166667 -0.333333    0.00462963  25 t-inv F
  0.500000 -0.166667  0.333333    0.00462963  25 t-inv F
  0.166667  0.333333 -0.333333    0.00462963  25 t-inv F
 -0.166667 -0.333333  0.333333    0.00462963  25 t-inv F
 -0.500000 -0.166667 -0.333333    0.00462963  26 t-inv F
 -0.666667  0.500000  0.333333    0.00462963  26 t-inv F
  0.666667 -0.500000 -0.333333    0.00462963  26 t-inv F
  0.166667 -0.666667  0.333333    0.00462963  26 t-inv F
 -0.166667  0.666667 -0.333333    0.00462963  26 t-inv F
  0.500000 -0.666667 -0.333333    0.00462963  26 t-inv F
 -0.500000  0.666667  0.333333    0.00462963  26 t-inv F
 -0.666667  0.166667 -0.333333    0.00462963  26 t-inv F
  0.666667 -0.166667  0.333333    0.00462963  26 t-inv F
  0.166667  0.500000 -0.333333    0.00462963  26 t-inv F
 -0.166667 -0.500000  0.333333    0.00462963  26 t-inv F
 -0.333333 -0.333333 -0.333333    0.00462963  27 t-inv F
  0.333333 -0.666667 -0.333333    0.00462963  27 t-inv F
 -0.333333  0.666667  0.333333    0.00462963  27 t-inv F
 -0.166667  0.000000 -0.500000    0.00462963  29 t-inv F
 -0.166667  0.166667  0.500000    0.00462963  29 t-inv F
  0.166667 -0.166667 -0.500000    0.00462963  29 t-inv F
 -0.000000 -0.166667  0.500000    0.00462963  29 t-inv F
  0.000000  0.166667 -0.500000    0.00462963  29 t-inv F
 -0.333333 -0.000000 -0.500000    0.00462963  30 t-inv F
 -0.333333  0.333333  0.500000    0.00462963  30 t-inv F
  0.333333 -0.333333 -0.500000    0.00462963  30 t-inv F
  0.000000 -0.333333  0.500000    0.00462963  30 t-inv F
 -0.000000  0.333333 -0.500000    0.00462963  30 t-inv F
 -0.500000  0.500000  0.500000    0.00462963  31 t-inv F
 -0.000000 -0.500000  0.500000    0.00462963  31 t-inv F
 -0.166667 -0.166667 -0.500000    0.00462963  32 t-inv F
 -0.333333  0.166667  0.500000    0.00462963  32 t-inv F
  0.333333 -0.166667 -0.500000    0.00462963  32 t-inv F
  0.166667 -0.333333  0.500000    0.00462963  32 t-inv F
 -0.166667  0.333333 -0.500000    0.00462963  32 t-inv F
 -0.333333 -0.166667 -0.500000    0.00462963  33 t-inv F
 -0.500000  0.333333  0.500000    0.00462963  33 t-inv F
  0.500000 -0.333333 -0.500000    0.00462963  33 t-inv F
  0.166667 -0.500000  0.500000    0.00462963  33 t-inv F
 -0.166667  0.500000 -0.500000    0.00462963  33 t-inv F
  0.333333 -0.500000 -0.500000    0.00462963  33 t-inv F
 -0.333333  0.500000  0.500000    0.00462963  33 t-inv F
 -0.500000  0.166667 -0.500000    0.00462963  33 t-inv F
  0.500000 -0.166667  0.500000    0.00462963  33 t-inv F
  0.166667  0.333333 -0.500000    0.00462963  33 t-inv F
 -0.166667 -0.333333  0.500000    0.00462963  33 t-inv F
 -0.333333 -0.333333 -0.500000    0.00462963  34 t-inv F


--------------------------------------------------------------------------------------------------------




 Dimension of arrays:
   k-points           NKPTS =     34   k-points in BZ     NKDIM =    216   number of bands    NBANDS=     64
   number of dos      NEDOS =    301   number of ions     NIONS =      3
   non local maximal  LDIM  =      6   non local SUM 2l+1 LMDIM =     18
   total plane-waves  NPLWV =  23040
   max r-space proj   IRMAX =      1   max aug-charges    IRDMAX=  15016
   dimension x,y,z NGX =    24 NGY =   24 NGZ =   40
   dimension x,y,z NGXF=    48 NGYF=   48 NGZF=   80
   support grid    NGXF=    48 NGYF=   48 NGZF=   80
   ions per type =               1   2
 NGX,Y,Z   is equivalent  to a cutoff of  10.93, 10.93, 11.06 a.u.
 NGXF,Y,Z  is equivalent  to a cutoff of  21.86, 21.86, 22.11 a.u.


 I would recommend the setting:
   dimension x,y,z NGX =    24 NGY =   24 NGZ =   39
 SYSTEM =  SnS2                                    
 POSCAR =  SnS2                                    

 Startparameter for this run:
   NWRITE =      2    write-flag & timer
   PREC   = accura    normal or accurate (medium, high low for compatibility)
   ISTART =      1    job   : 0-new  1-cont  2-samecut
   ICHARG =      0    charge: 1-file 2-atom 10-const
   ISPIN  =      1    spin polarized calculation?
   LNONCOLLINEAR =      F non collinear calculations
   LSORBIT =      F    spin-orbit coupling
   INIWAV =      1    electr: 0-lowe 1-rand  2-diag
   LASPH  =      T    aspherical Exc in radial PAW
   METAGGA=      F    non-selfconsistent MetaGGA calc.

 Electronic Relaxation 1
   ENCUT  =  400.0 eV  29.40 Ry    5.42 a.u.   5.95  5.95  9.81*2*pi/ulx,y,z
   ENINI  =  400.0     initial cutoff
   ENAUG  =  439.8 eV  augmentation charge cutoff
   NELM   =      4;   NELMIN=  2; NELMDL=  0     # of ELM steps 
   EDIFF  = 0.1E-07   stopping-criterion for ELM
   LREAL  =      F    real-space projection
   NLSPLINE    = F    spline interpolate recip. space projectors
   LCOMPAT=      F    compatible to vasp.4.4
   GGA_COMPAT  = T    GGA compatible to vasp.4.4-vasp.4.6
   LMAXPAW     = -100 max onsite density
   LMAXMIX     =    2 max onsite mixed and CHGCAR
   VOSKOWN=      0    Vosko Wilk Nusair interpolation
   ROPT   =    0.00000   0.00000
 Ionic relaxation
   EDIFFG = 0.1E-06   stopping-criterion for IOM
   NSW    =      0    number of steps for IOM
   NBLOCK =      1;   KBLOCK =      1    inner block; outer block 
   IBRION =     -1    ionic relax: 0-MD 1-quasi-New 2-CG
   NFREE  =      0    steps in history (QN), initial steepest desc. (CG)
   ISIF   =      2    stress and relaxation
   IWAVPR =     10    prediction:  0-non 1-charg 2-wave 3-comb
   ISYM   =      3    0-nonsym 1-usesym 2-fastsym
   LCORR  =      T    Harris-Foulkes like correction to forces

   POTIM  = 0.5000    time-step for ionic-motion
   TEIN   =    0.0    initial temperature
   TEBEG  =    0.0;   TEEND  =   0.0 temperature during run
   SMASS  =  -3.00    Nose mass-parameter (am)
   estimated Nose-frequenzy (Omega)   =  0.10E-29 period in steps =****** mass=  -0.305E-27a.u.
   SCALEE = 1.0000    scale energy and forces
   NPACO  =    256;   APACO  = 16.0  distance and # of slots for P.C.
   PSTRESS=    0.0 pullay stress

  Mass of Ions in am
   POMASS = 118.71 32.07
  Ionic Valenz
   ZVAL   =  14.00  6.00
  Atomic Wigner-Seitz radii
   RWIGS  =  -1.00 -1.00
  virtual crystal weights 
   VCA    =   1.00  1.00
   NELECT =      26.0000    total number of electrons
   NUPDOWN=      -1.0000    fix difference up-down

 DOS related values:
   EMIN   =  10.00;   EMAX   =-10.00  energy-range for DOS
   EFERMI =   0.00
   ISMEAR =    -5;   SIGMA  =   0.20  broadening in eV -4-tet -1-fermi 0-gaus

 Electronic relaxation 2 (details)
   IALGO  =      4    algorithm
   LDIAG  =      T    sub-space diagonalisation (order eigenvalues)
   LSUBROT=      F    optimize rotation matrix (better conditioning)
   TURBO    =      0    0=normal 1=particle mesh
   IRESTART =      0    0=no restart 2=restart with 2 vectors
   NREBOOT  =      0    no. of reboots
   NMIN     =      0    reboot dimension
   EREF     =   0.00    reference energy to select bands
   IMIX   =      1    mixing-type and parameters
     AMIX     =   0.40;   BMIX     =  1.00
     AMIX_MAG =   1.60;   BMIX_MAG =  1.00
     AMIN     =   0.10
     WC   =   100.;   INIMIX=   1;  MIXPRE=   1;  MAXMIX= -45

 Intra band minimization:
   WEIMIN = 0.0000     energy-eigenvalue tresh-hold
   EBREAK =  0.39E-10  absolut break condition
   DEPER  =   0.30     relativ break condition  

   TIME   =   0.40     timestep for ELM

  volume/ion in A,a.u.               =      23.15       156.19
  Fermi-wavevector in a.u.,A,eV,Ry     =   1.179965  2.229811 18.943643  1.392318
  Thomas-Fermi vector in A             =   2.316267
 
 Write flags
   LWAVE  =      T    write WAVECAR
   LCHARG =      T    write CHGCAR
   LVTOT  =      F    write LOCPOT, total local potential
   LVHAR  =      F    write LOCPOT, Hartree potential only
   LELF   =      F    write electronic localiz. function (ELF)
   LORBIT =      0    0 simple, 1 ext, 2 COOP (PROOUT)


 Dipole corrections
   LMONO  =      F    monopole corrections only (constant potential shift)
   LDIPOL =      F    correct potential (dipole corrections)
   IDIPOL =      0    1-x, 2-y, 3-z, 4-all directions 
   EPSILON=  1.0000000 bulk dielectric constant

 Exchange correlation treatment:
   GGA     =    PE    GGA type
   LEXCH   =     8    internal setting for exchange type
   VOSKOWN=      0    Vosko Wilk Nusair interpolation
   EXXOEP  =     0    0=HF, 1=EXX-LHF (local Hartree Fock) 2=EXX OEP
   LHFCALC =     T    Hartree Fock is set to
   LSYMGRAD=     F    symmetrize gradient (conserves proper symmetry)
   PRECFOCK=normal    Normal, Fast or Accurate (Low or Medium for compatibility)
   LRHFCALC=     F    long range Hartree Fock
   LRSCOR  =     F    long range correlation only (use DFT for short range part)
   LTHOMAS =     F    Thomas Fermi screening in HF
   LMODELHF=     F    short range full HF, long range fraction AEXX
   ENCUT4O =  -1.0   cutoff for four orbital integrals eV
   LMAXFOCK=     4    L truncation for augmentation on plane wave grid
   LMAXFOCKAE=   4    L truncation for all-electron charge restoration on plane wave grid
   NMAXFOCKAE=   1    number of basis functions for all-electron charge restoration
   LFOCKAEDFT=     F  apply the AE augmentation even for DFT
   NKREDX  =     1    reduce k-point grid by
   NKREDY  =     1    reduce k-point grid by
   NKREDZ  =     1    reduce k-point grid by
   SHIFTRED=     F    shift reduced grid of Gamma
   HFKIDENT=     F    idential grid for each k-point
   ODDONLY =     F    use only odd q-grid points
   EVENONLY=     F    use only even q-grid points
   HFALPHA =   -1.0000 decay constant for conv. correction
   MCALPHA =    0.0000 extent of test-charge in conv. correction in multipole expansion
   AEXX    =    1.0000 exact exchange contribution
   HFSCREEN=    0.0000 screening length (either q_TF or 0.3 A-1)
   HFSCREENC=   0.0000 screening length for correlation (either q_TF or 0.3 A-1)
   HFRCUT  =    0.0000 spherical cutoff for potential kernel
   ALDAX   =    0.0000 LDA exchange part
   AGGAX   =    0.0000 GGA exchange part
   ALDAC   =    0.0000 LDA correlation
   AGGAC   =    0.0000 GGA correlation
   NBANDSGWLOW=     1    first orbital included in HF term
   ENCUTFOCK=  -1.0 apply spherical cutoff to Coloumb kernel
 Linear response parameters
   LEPSILON=     F    determine dielectric tensor
   LRPA    =     F    only Hartree local field effects (RPA)
   LNABLA  =     F    use nabla operator in PAW spheres
   LVEL    =     F    velocity operator in full k-point grid
   LINTERFAST=   F  fast interpolation
   KINTER  =     0    interpolate to denser k-point grid
   CSHIFT  =0.1000    complex shift for real part using Kramers Kronig
   OMEGAMAX=  -1.0    maximum frequency
   DEG_THRESHOLD= 0.2000000E-02 threshold for treating states as degnerate
   RTIME   =    0.100 relaxation time in fs

 Orbital magnetization related:
   ORBITALMAG=     F  switch on orbital magnetization
   LCHIMAG   =     F  perturbation theory with respect to B field
   DQ        =  0.001000  dq finite difference perturbation B field

 Response functions by sum over occupied states:
   ALGO    =QPGW0      execute GW part
   LFXC    =     F    include DFT xc kernel in TD-HF and W
   LADDER  =     F    particle hole ladder diagrams for BSE/TD-HF and W (Nano-quanta)
   LHARTREE=     T    include Hartree terms (bubbles-RPA) in BSE/TD-HF
   IBSE    =     0    BSE modus: 0 exact, 1 time-evolution (store matrix), 10 time-evolution (implicit)
   KPOINT  =    -1   0   0   0    k-point index at which BSE equation is solved (and G at which response is eval.)
   LTRIPLET=     F    triplet instead of singlet excitation (BSE only)
   LRSRPA  =     F    range separated RPA (total - short) in ACFDT
   LTCTE   =     F    use test-charge test-electron dielectric function
   LTETE   =     F    use test-electron test-electron dielectric function
   LFXCEPS =     F    determine f_xc=epsilon-1/Xi Sharma and Gross kernel
   LFXHEG  =     F    model exchange using f_x(G,k_F) from free electron gas
   NATURALO=     0    0 natural orbitals, 1 only virtual, 2 only occupied-virtual rotation
   L2ORDER =     F    2nd order terms only
   LUSEW   =     F    use screened W from WXXXX.tmp files instead of (screened) HF kernel
   ENCUTGW = 266.7    cutoff for response function in eV
   ENCUTGWSOFT =  -2.0 soft cutoff for Coulomb kernel in GW response function in eV
   ENCUTLF =  -1.0    cutoff for local field effects
   LMAXMP2 =    -1    maximum L for one center terms
   SCISSOR =   0.0    scissor correction
   NOMEGA  =    50    number of frequencies
   NOMEGAR =    50    number of frequencies along real axis
   NBANDSGW=    -1    number of bands for which selfenergy shift is calculated
   NBANDSGWLOW=     1 lowest band included in GW (to exclude core correlation)
   NBANDSO =    -1    number of bands for electron-hole treatment (occupied)
   NBANDSV =    -1    number of bands for electron-hole treatment (virtual)
   NELM    =     4    number of iterations in solving QP/BSE equation
   NELMHF  =     1    number of iterations in the inner HF iteration
   DIM     =     3    dimensionality of system (0=0D molecules, 3=3D)
   ANTIRES =     0    antiresonant part (0) no TDA (1) w=0 exact (2) accurate
   OMEGAMAX= -30.0    maximum frequency
   OMEGAMIN= -30.000    minimum frequency
   OMEGATL =-200.0    maximum frequency of tail
   OMEGAGRID=     0    grid type (0 default)
   CSHIFT  =-0.100    complex shift used in evaluation of response functions
   SELFENERGY=   F    calculate selfenergy instead of QP shifts
   LSPECTRAL =   T    use spectral functions                   
   LSPECTRALGW=   F   use spectral functions to calculate int dz G(w-z) W(z) (more accurate)
   LSINGLES  =   F   calculate the singles contribution to the correlation energy
   LFERMIGW  =   F   update Fermi-energy in the Greens function

   ODDONLYGW =   F    avoid all even points for polarizability 
   EVENONLYGW=   F    avoid all odd  points for polarizability 
   NKREDLFX  =   1   NKREDLFY  =   1   NKREDLFZ  =   1

   TELESCOPE =   0   use telescope k-point sampling
   TAUPAR    =   1   number of TAU groups used in imaginary time calculation
   OMEGAPAR  =  -1   number of OMEGA groups used in imaginary frequency calculation
   MAXITERFT   =  30    max iterations in remez



--------------------------------------------------------------------------------------------------------


 Static calculation
 charge density and potential will be updated during run
 non-spin polarized calculation
 Subrot: only subspace diagonalization (rotation)
    band-by band algorithm
 perform sub-space diagonalisation
    before iterative eigenvector-optimisation
 Kerker-like  mixing scheme
 using additional bands           51
 reciprocal scheme for non local part
 use partial core corrections
 calculate Harris-corrections to forces 
   (improved forces if not selfconsistent)
 use gradient corrections 
 use of overlap-Matrix (Vanderbilt PP)
 Fermi weights with tetrahedron method with Bloechl corrections


--------------------------------------------------------------------------------------------------------


  energy-cutoff  :      400.00
  volume of cell :       69.44
      direct lattice vectors                 reciprocal lattice vectors
     3.651000000  0.000000000  0.000000000     0.273897562  0.158134819  0.000000000
    -1.825500000  3.161859000  0.000000000     0.000000000  0.316269638  0.000000000
     0.000000000  0.000000000  6.015000000     0.000000000  0.000000000  0.166251039

  length of vectors
     3.651000000  3.651000217  6.015000000     0.316269656  0.316269638  0.166251039


 
 old parameters found on file WAVECAR:
  energy-cutoff  :      400.00
  volume of cell :       69.44
      direct lattice vectors                 reciprocal lattice vectors
     3.651000000  0.000000000  0.000000000     0.273897562  0.158134819  0.000000000
    -1.825500000  3.161859000  0.000000000     0.000000000  0.316269638  0.000000000
     0.000000000  0.000000000  6.015000000     0.000000000  0.000000000  0.166251039

  length of vectors

 
 k-points in units of 2pi/SCALE and weight: Automatic 6x6x6                         
   0.00000000  0.00000000  0.00000000       0.005
   0.04564959  0.02635580  0.00000000       0.028
   0.09129919  0.05271161  0.00000000       0.028
   0.13694878  0.07906741  0.00000000       0.014
   0.04564959  0.07906741  0.00000000       0.028
   0.09129919  0.10542321  0.00000000       0.056
   0.09129919  0.15813482  0.00000000       0.009
   0.00000000  0.00000000  0.02770851       0.009
   0.04564959  0.02635580  0.02770851       0.028
   0.09129919  0.05271161  0.02770851       0.028
   0.13694878  0.07906741  0.02770851       0.028
  -0.09129919 -0.05271161  0.02770851       0.028
  -0.04564959 -0.02635580  0.02770851       0.028
   0.04564959  0.07906741  0.02770851       0.056
   0.09129919  0.10542321  0.02770851       0.056
   0.13694878  0.13177902  0.02770851       0.056
   0.09129919  0.15813482  0.02770851       0.019
   0.00000000  0.00000000  0.05541701       0.009
   0.04564959  0.02635580  0.05541701       0.028
   0.09129919  0.05271161  0.05541701       0.028
   0.13694878  0.07906741  0.05541701       0.028
  -0.09129919 -0.05271161  0.05541701       0.028
  -0.04564959 -0.02635580  0.05541701       0.028
   0.04564959  0.07906741  0.05541701       0.056
   0.09129919  0.10542321  0.05541701       0.056
   0.13694878  0.13177902  0.05541701       0.056
   0.09129919  0.15813482  0.05541701       0.019
   0.00000000  0.00000000  0.08312552       0.005
   0.04564959  0.02635580  0.08312552       0.028
   0.09129919  0.05271161  0.08312552       0.028
   0.13694878  0.07906741  0.08312552       0.014
   0.04564959  0.07906741  0.08312552       0.028
   0.09129919  0.10542321  0.08312552       0.056
   0.09129919  0.15813482  0.08312552       0.009
 
 k-points in reciprocal lattice and weights: Automatic 6x6x6                         
   0.00000000  0.00000000  0.00000000       0.005
   0.16666667 -0.00000000  0.00000000       0.028
   0.33333333  0.00000000  0.00000000       0.028
   0.50000000 -0.00000000  0.00000000       0.014
   0.16666667  0.16666667  0.00000000       0.028
   0.33333333  0.16666667  0.00000000       0.056
   0.33333333  0.33333333  0.00000000       0.009
   0.00000000  0.00000000  0.16666667       0.009
   0.16666667 -0.00000000  0.16666667       0.028
   0.33333333  0.00000000  0.16666667       0.028
   0.50000000 -0.00000000  0.16666667       0.028
  -0.33333333 -0.00000000  0.16666667       0.028
  -0.16666667  0.00000000  0.16666667       0.028
   0.16666667  0.16666667  0.16666667       0.056
   0.33333333  0.16666667  0.16666667       0.056
   0.50000000  0.16666667  0.16666667       0.056
   0.33333333  0.33333333  0.16666667       0.019
   0.00000000  0.00000000  0.33333333       0.009
   0.16666667 -0.00000000  0.33333333       0.028
   0.33333333  0.00000000  0.33333333       0.028
   0.50000000 -0.00000000  0.33333333       0.028
  -0.33333333 -0.00000000  0.33333333       0.028
  -0.16666667  0.00000000  0.33333333       0.028
   0.16666667  0.16666667  0.33333333       0.056
   0.33333333  0.16666667  0.33333333       0.056
   0.50000000  0.16666667  0.33333333       0.056
   0.33333333  0.33333333  0.33333333       0.019
   0.00000000  0.00000000  0.50000000       0.005
   0.16666667 -0.00000000  0.50000000       0.028
   0.33333333  0.00000000  0.50000000       0.028
   0.50000000 -0.00000000  0.50000000       0.014
   0.16666667  0.16666667  0.50000000       0.028
   0.33333333  0.16666667  0.50000000       0.056
   0.33333333  0.33333333  0.50000000       0.009
 
 position of ions in fractional coordinates (direct lattice) 
   0.00000000  0.00000000  0.00000000
   0.33333300  0.66666600  0.24520076
   0.66666600  0.33333300  0.75479994
 
 position of ions in cartesian coordinates  (Angst):
   0.00000000  0.00000000  0.00000000
   0.00000000  2.10790389  1.47488259
   1.82549817  1.05395195  4.54012162
 


--------------------------------------------------------------------------------------------------------


 k-point  1 :   0.0000 0.0000 0.0000  plane waves:    1273
 k-point  2 :   0.1667-0.0000 0.0000  plane waves:    1248
 k-point  3 :   0.3333 0.0000 0.0000  plane waves:    1266
 k-point  4 :   0.5000-0.0000 0.0000  plane waves:    1244
 k-point  5 :   0.1667 0.1667 0.0000  plane waves:    1266
 k-point  6 :   0.3333 0.1667 0.0000  plane waves:    1262
 k-point  7 :   0.3333 0.3333 0.0000  plane waves:    1254
 k-point  8 :   0.0000 0.0000 0.1667  plane waves:    1261
 k-point  9 :   0.1667-0.0000 0.1667  plane waves:    1251
 k-point 10 :   0.3333 0.0000 0.1667  plane waves:    1259
 k-point 11 :   0.5000-0.0000 0.1667  plane waves:    1264
 k-point 12 :  -0.3333-0.0000 0.1667  plane waves:    1259
 k-point 13 :  -0.1667 0.0000 0.1667  plane waves:    1251
 k-point 14 :   0.1667 0.1667 0.1667  plane waves:    1262
 k-point 15 :   0.3333 0.1667 0.1667  plane waves:    1265
 k-point 16 :   0.5000 0.1667 0.1667  plane waves:    1265
 k-point 17 :   0.3333 0.3333 0.1667  plane waves:    1266
 k-point 18 :   0.0000 0.0000 0.3333  plane waves:    1232
 k-point 19 :   0.1667-0.0000 0.3333  plane waves:    1247
 k-point 20 :   0.3333 0.0000 0.3333  plane waves:    1257
 k-point 21 :   0.5000-0.0000 0.3333  plane waves:    1274
 k-point 22 :  -0.3333-0.0000 0.3333  plane waves:    1257
 k-point 23 :  -0.1667 0.0000 0.3333  plane waves:    1247
 k-point 24 :   0.1667 0.1667 0.3333  plane waves:    1255
 k-point 25 :   0.3333 0.1667 0.3333  plane waves:    1271
 k-point 26 :   0.5000 0.1667 0.3333  plane waves:    1271
 k-point 27 :   0.3333 0.3333 0.3333  plane waves:    1284
 k-point 28 :   0.0000 0.0000 0.5000  plane waves:    1208
 k-point 29 :   0.1667-0.0000 0.5000  plane waves:    1256
 k-point 30 :   0.3333 0.0000 0.5000  plane waves:    1260
 k-point 31 :   0.5000-0.0000 0.5000  plane waves:    1260
 k-point 32 :   0.1667 0.1667 0.5000  plane waves:    1264
 k-point 33 :   0.3333 0.1667 0.5000  plane waves:    1264
 k-point 34 :   0.3333 0.3333 0.5000  plane waves:    1290

 maximum and minimum number of plane-waves per node :      1290     1208

 maximum number of plane-waves:      1290
 maximum index in each direction: 
   IXMAX=    6   IYMAX=    5   IZMAX=    9
   IXMIN=   -6   IYMIN=   -6   IZMIN=  -10

 WARNING: aliasing errors must be expected set NGX to  26 to avoid them
 NGY is ok and might be reduce to  24
 NGZ is ok and might be reduce to  40
 aliasing errors are usually negligible using standard VASP settings
 and one can safely disregard these warnings

 serial   3D FFT for wavefunctions
 parallel 3D FFT for charge:
    minimum data exchange during FFTs selected (reduces bandwidth)


 FFT grid for exact exchange (Hartree Fock) 
  NGX = 18; NGY = 18; NGZ = 30

 
 Radii for the augmentation spheres in the non-local exchange
 for species   1 augmentation radius   1.089 (default was   1.089)
 error exchange integrals (PW-AE in eV) (mean, max) 0.790 5.267 density error[0,qmax] 0.0147
 for species   2 augmentation radius   0.970 (default was   0.970)
 error exchange integrals (PW-AE in eV) (mean, max) 0.052 0.429 density error[0,qmax] 0.0056
 Maximum index for augmentation-charges in exchange          767
  SETUP_FOCK is finished

 total amount of memory used by VASP on root node    60364. kBytes
========================================================================

   base      :      30000. kBytes
   nonl-proj :      12713. kBytes
   fftplans  :       1680. kBytes
   grid      :       3557. kBytes
   one-center:         46. kBytes
   HF        :        259. kBytes
   nonlr-proj:        551. kBytes
   wavefun   :      11558. kBytes
 
     INWAV:  cpu time    0.1960: real time    0.1972
 charge density for first step will be calculated from the start-wavefunctions


--------------------------------------------------------------------------------------------------------


 Maximum index for augmentation-charges         3585 (set IRDMAX)


--------------------------------------------------------------------------------------------------------


 initial charge from wavefunction
 FEWALD executed in parallel
    FEWALD:  cpu time    0.0040: real time    0.0002

 The Fermi energy was updated, please check that it is located mid-gap
 values below the HOMO (VB) or above the LUMO (CB) will cause erroneous energies
 E-fermi :   5.1110

 Response functions by sum over occupied states:
 ===============================================
   NOMEGA  =    50    number of frequencies
   NOMEGAR =    50    number of frequencies along real axis
   OMEGAMAX=  16.12   maximum frequency
   OMEGAMIN=   0.76   minimum frequency
   OMEGATL = 186.30   maximum frequency of tail
   CSHIFT  =  0.419   complex shift used in evaluation of response functions


 Energies w= 
 ============
   0.000   0.000   0.640   0.000   1.278   0.000   1.912   0.000   2.538   0.000
   3.156   0.000   3.765   0.000   4.364   0.000   4.952   0.000   5.529   0.000
   6.096   0.000   6.655   0.000   7.205   0.000   7.748   0.000   8.285   0.000
   8.819   0.000   9.350   0.000   9.881   0.000  10.414   0.000  10.951   0.000
  11.494   0.000  12.045   0.000  12.609   0.000  13.187   0.000  13.782   0.000
  14.400   0.000  15.044   0.000  15.719   0.000  16.431   0.000  17.186   0.000
  17.994   0.000  18.863   0.000  19.805   0.000  20.834   0.000  21.968   0.000
  23.230   0.000  24.647   0.000  26.257   0.000  28.107   0.000  30.262   0.000
  32.811   0.000  35.881   0.000  39.652   0.000  44.403   0.000  50.572   0.000
  58.903   0.000  70.755   0.000  88.920   0.000 120.170   0.000 186.303   0.000
 

IMPORTANT INFORMATION: All symmetrisations will be switched off!
NOSYMM: (Re-)initialisation of all symmetry stuff for point group C_1.

 
 KPOINTS: Automatic 6x6x6                         

Automatic generation of k-mesh.
Space group operators:
 irot       det(A)        alpha          n_x          n_y          n_z        tau_x        tau_y        tau_z
    1     1.000000     0.000000     1.000000     0.000000     0.000000     0.000000     0.000000     0.000000
 
 Subroutine IBZKPT returns following result:
 ===========================================
 
 Found    216 irreducible k-points:
 
 Following reciprocal coordinates:
            Coordinates               Weight
  0.000000  0.000000  0.000000      1.000000
  0.166667 -0.000000  0.000000      1.000000
  0.333333  0.000000  0.000000      1.000000
  0.500000 -0.000000  0.000000      1.000000
 -0.333333 -0.000000  0.000000      1.000000
 -0.166667  0.000000  0.000000      1.000000
  0.000000  0.166667  0.000000      1.000000
  0.166667  0.166667  0.000000      1.000000
  0.333333  0.166667  0.000000      1.000000
  0.500000  0.166667  0.000000      1.000000
 -0.333333  0.166667  0.000000      1.000000
 -0.166667  0.166667  0.000000      1.000000
  0.000000  0.333333  0.000000      1.000000
  0.166667  0.333333  0.000000      1.000000
  0.333333  0.333333  0.000000      1.000000
  0.500000  0.333333  0.000000      1.000000
 -0.333333  0.333333  0.000000      1.000000
 -0.166667  0.333333  0.000000      1.000000
  0.000000  0.500000  0.000000      1.000000
  0.166667  0.500000  0.000000      1.000000
  0.333333  0.500000  0.000000      1.000000
  0.500000  0.500000  0.000000      1.000000
 -0.333333  0.500000  0.000000      1.000000
 -0.166667  0.500000  0.000000      1.000000
  0.000000 -0.333333  0.000000      1.000000
  0.166667 -0.333333  0.000000      1.000000
  0.333333 -0.333333  0.000000      1.000000
  0.500000 -0.333333  0.000000      1.000000
 -0.333333 -0.333333  0.000000      1.000000
 -0.166667 -0.333333  0.000000      1.000000
  0.000000 -0.166667  0.000000      1.000000
  0.166667 -0.166667  0.000000      1.000000
  0.333333 -0.166667  0.000000      1.000000
  0.500000 -0.166667  0.000000      1.000000
 -0.333333 -0.166667  0.000000      1.000000
 -0.166667 -0.166667  0.000000      1.000000
  0.000000  0.000000  0.166667      1.000000
  0.166667 -0.000000  0.166667      1.000000
  0.333333  0.000000  0.166667      1.000000
  0.500000 -0.000000  0.166667      1.000000
 -0.333333 -0.000000  0.166667      1.000000
 -0.166667  0.000000  0.166667      1.000000
  0.000000  0.166667  0.166667      1.000000
  0.166667  0.166667  0.166667      1.000000
  0.333333  0.166667  0.166667      1.000000
  0.500000  0.166667  0.166667      1.000000
 -0.333333  0.166667  0.166667      1.000000
 -0.166667  0.166667  0.166667      1.000000
  0.000000  0.333333  0.166667      1.000000
  0.166667  0.333333  0.166667      1.000000
  0.333333  0.333333  0.166667      1.000000
  0.500000  0.333333  0.166667      1.000000
 -0.333333  0.333333  0.166667      1.000000
 -0.166667  0.333333  0.166667      1.000000
  0.000000  0.500000  0.166667      1.000000
  0.166667  0.500000  0.166667      1.000000
  0.333333  0.500000  0.166667      1.000000
  0.500000  0.500000  0.166667      1.000000
 -0.333333  0.500000  0.166667      1.000000
 -0.166667  0.500000  0.166667      1.000000
  0.000000 -0.333333  0.166667      1.000000
  0.166667 -0.333333  0.166667      1.000000
  0.333333 -0.333333  0.166667      1.000000
  0.500000 -0.333333  0.166667      1.000000
 -0.333333 -0.333333  0.166667      1.000000
 -0.166667 -0.333333  0.166667      1.000000
  0.000000 -0.166667  0.166667      1.000000
  0.166667 -0.166667  0.166667      1.000000
  0.333333 -0.166667  0.166667      1.000000
  0.500000 -0.166667  0.166667      1.000000
 -0.333333 -0.166667  0.166667      1.000000
 -0.166667 -0.166667  0.166667      1.000000
  0.000000  0.000000  0.333333      1.000000
  0.166667 -0.000000  0.333333      1.000000
  0.333333  0.000000  0.333333      1.000000
  0.500000 -0.000000  0.333333      1.000000
 -0.333333 -0.000000  0.333333      1.000000
 -0.166667  0.000000  0.333333      1.000000
  0.000000  0.166667  0.333333      1.000000
  0.166667  0.166667  0.333333      1.000000
  0.333333  0.166667  0.333333      1.000000
  0.500000  0.166667  0.333333      1.000000
 -0.333333  0.166667  0.333333      1.000000
 -0.166667  0.166667  0.333333      1.000000
  0.000000  0.333333  0.333333      1.000000
  0.166667  0.333333  0.333333      1.000000
  0.333333  0.333333  0.333333      1.000000
  0.500000  0.333333  0.333333      1.000000
 -0.333333  0.333333  0.333333      1.000000
 -0.166667  0.333333  0.333333      1.000000
  0.000000  0.500000  0.333333      1.000000
  0.166667  0.500000  0.333333      1.000000
  0.333333  0.500000  0.333333      1.000000
  0.500000  0.500000  0.333333      1.000000
 -0.333333  0.500000  0.333333      1.000000
 -0.166667  0.500000  0.333333      1.000000
  0.000000 -0.333333  0.333333      1.000000
  0.166667 -0.333333  0.333333      1.000000
  0.333333 -0.333333  0.333333      1.000000
  0.500000 -0.333333  0.333333      1.000000
 -0.333333 -0.333333  0.333333      1.000000
 -0.166667 -0.333333  0.333333      1.000000
  0.000000 -0.166667  0.333333      1.000000
  0.166667 -0.166667  0.333333      1.000000
  0.333333 -0.166667  0.333333      1.000000
  0.500000 -0.166667  0.333333      1.000000
 -0.333333 -0.166667  0.333333      1.000000
 -0.166667 -0.166667  0.333333      1.000000
  0.000000  0.000000  0.500000      1.000000
  0.166667 -0.000000  0.500000      1.000000
  0.333333  0.000000  0.500000      1.000000
  0.500000 -0.000000  0.500000      1.000000
 -0.333333 -0.000000  0.500000      1.000000
 -0.166667  0.000000  0.500000      1.000000
  0.000000  0.166667  0.500000      1.000000
  0.166667  0.166667  0.500000      1.000000
  0.333333  0.166667  0.500000      1.000000
  0.500000  0.166667  0.500000      1.000000
 -0.333333  0.166667  0.500000      1.000000
 -0.166667  0.166667  0.500000      1.000000
  0.000000  0.333333  0.500000      1.000000
  0.166667  0.333333  0.500000      1.000000
  0.333333  0.333333  0.500000      1.000000
  0.500000  0.333333  0.500000      1.000000
 -0.333333  0.333333  0.500000      1.000000
 -0.166667  0.333333  0.500000      1.000000
  0.000000  0.500000  0.500000      1.000000
  0.166667  0.500000  0.500000      1.000000
  0.333333  0.500000  0.500000      1.000000
  0.500000  0.500000  0.500000      1.000000
 -0.333333  0.500000  0.500000      1.000000
 -0.166667  0.500000  0.500000      1.000000
  0.000000 -0.333333  0.500000      1.000000
  0.166667 -0.333333  0.500000      1.000000
  0.333333 -0.333333  0.500000      1.000000
  0.500000 -0.333333  0.500000      1.000000
 -0.333333 -0.333333  0.500000      1.000000
 -0.166667 -0.333333  0.500000      1.000000
  0.000000 -0.166667  0.500000      1.000000
  0.166667 -0.166667  0.500000      1.000000
  0.333333 -0.166667  0.500000      1.000000
  0.500000 -0.166667  0.500000      1.000000
 -0.333333 -0.166667  0.500000      1.000000
 -0.166667 -0.166667  0.500000      1.000000
  0.000000  0.000000 -0.333333      1.000000
  0.166667 -0.000000 -0.333333      1.000000
  0.333333  0.000000 -0.333333      1.000000
  0.500000 -0.000000 -0.333333      1.000000
 -0.333333 -0.000000 -0.333333      1.000000
 -0.166667  0.000000 -0.333333      1.000000
  0.000000  0.166667 -0.333333      1.000000
  0.166667  0.166667 -0.333333      1.000000
  0.333333  0.166667 -0.333333      1.000000
  0.500000  0.166667 -0.333333      1.000000
 -0.333333  0.166667 -0.333333      1.000000
 -0.166667  0.166667 -0.333333      1.000000
  0.000000  0.333333 -0.333333      1.000000
  0.166667  0.333333 -0.333333      1.000000
  0.333333  0.333333 -0.333333      1.000000
  0.500000  0.333333 -0.333333      1.000000
 -0.333333  0.333333 -0.333333      1.000000
 -0.166667  0.333333 -0.333333      1.000000
  0.000000  0.500000 -0.333333      1.000000
  0.166667  0.500000 -0.333333      1.000000
  0.333333  0.500000 -0.333333      1.000000
  0.500000  0.500000 -0.333333      1.000000
 -0.333333  0.500000 -0.333333      1.000000
 -0.166667  0.500000 -0.333333      1.000000
  0.000000 -0.333333 -0.333333      1.000000
  0.166667 -0.333333 -0.333333      1.000000
  0.333333 -0.333333 -0.333333      1.000000
  0.500000 -0.333333 -0.333333      1.000000
 -0.333333 -0.333333 -0.333333      1.000000
 -0.166667 -0.333333 -0.333333      1.000000
  0.000000 -0.166667 -0.333333      1.000000
  0.166667 -0.166667 -0.333333      1.000000
  0.333333 -0.166667 -0.333333      1.000000
  0.500000 -0.166667 -0.333333      1.000000
 -0.333333 -0.166667 -0.333333      1.000000
 -0.166667 -0.166667 -0.333333      1.000000
  0.000000  0.000000 -0.166667      1.000000
  0.166667 -0.000000 -0.166667      1.000000
  0.333333  0.000000 -0.166667      1.000000
  0.500000 -0.000000 -0.166667      1.000000
 -0.333333 -0.000000 -0.166667      1.000000
 -0.166667  0.000000 -0.166667      1.000000
  0.000000  0.166667 -0.166667      1.000000
  0.166667  0.166667 -0.166667      1.000000
  0.333333  0.166667 -0.166667      1.000000
  0.500000  0.166667 -0.166667      1.000000
 -0.333333  0.166667 -0.166667      1.000000
 -0.166667  0.166667 -0.166667      1.000000
  0.000000  0.333333 -0.166667      1.000000
  0.166667  0.333333 -0.166667      1.000000
  0.333333  0.333333 -0.166667      1.000000
  0.500000  0.333333 -0.166667      1.000000
 -0.333333  0.333333 -0.166667      1.000000
 -0.166667  0.333333 -0.166667      1.000000
  0.000000  0.500000 -0.166667      1.000000
  0.166667  0.500000 -0.166667      1.000000
  0.333333  0.500000 -0.166667      1.000000
  0.500000  0.500000 -0.166667      1.000000
 -0.333333  0.500000 -0.166667      1.000000
 -0.166667  0.500000 -0.166667      1.000000
  0.000000 -0.333333 -0.166667      1.000000
  0.166667 -0.333333 -0.166667      1.000000
  0.333333 -0.333333 -0.166667      1.000000
  0.500000 -0.333333 -0.166667      1.000000
 -0.333333 -0.333333 -0.166667      1.000000
 -0.166667 -0.333333 -0.166667      1.000000
  0.000000 -0.166667 -0.166667      1.000000
  0.166667 -0.166667 -0.166667      1.000000
  0.333333 -0.166667 -0.166667      1.000000
  0.500000 -0.166667 -0.166667      1.000000
 -0.333333 -0.166667 -0.166667      1.000000
 -0.166667 -0.166667 -0.166667      1.000000
 
 Following cartesian coordinates:
            Coordinates               Weight
  0.000000  0.000000  0.000000      1.000000
  0.045650  0.026356  0.000000      1.000000
  0.091299  0.052712  0.000000      1.000000
  0.136949  0.079067  0.000000      1.000000
 -0.091299 -0.052712  0.000000      1.000000
 -0.045650 -0.026356  0.000000      1.000000
  0.000000  0.052712  0.000000      1.000000
  0.045650  0.079067  0.000000      1.000000
  0.091299  0.105423  0.000000      1.000000
  0.136949  0.131779  0.000000      1.000000
 -0.091299  0.000000  0.000000      1.000000
 -0.045650  0.026356  0.000000      1.000000
  0.000000  0.105423  0.000000      1.000000
  0.045650  0.131779  0.000000      1.000000
  0.091299  0.158135  0.000000      1.000000
  0.136949  0.184491  0.000000      1.000000
 -0.091299  0.052712  0.000000      1.000000
 -0.045650  0.079067  0.000000      1.000000
  0.000000  0.158135  0.000000      1.000000
  0.045650  0.184491  0.000000      1.000000
  0.091299  0.210846  0.000000      1.000000
  0.136949  0.237202  0.000000      1.000000
 -0.091299  0.105423  0.000000      1.000000
 -0.045650  0.131779  0.000000      1.000000
  0.000000 -0.105423  0.000000      1.000000
  0.045650 -0.079067  0.000000      1.000000
  0.091299 -0.052712  0.000000      1.000000
  0.136949 -0.026356  0.000000      1.000000
 -0.091299 -0.158135  0.000000      1.000000
 -0.045650 -0.131779  0.000000      1.000000
  0.000000 -0.052712  0.000000      1.000000
  0.045650 -0.026356  0.000000      1.000000
  0.091299 -0.000000  0.000000      1.000000
  0.136949  0.026356  0.000000      1.000000
 -0.091299 -0.105423  0.000000      1.000000
 -0.045650 -0.079067  0.000000      1.000000
  0.000000  0.000000  0.027709      1.000000
  0.045650  0.026356  0.027709      1.000000
  0.091299  0.052712  0.027709      1.000000
  0.136949  0.079067  0.027709      1.000000
 -0.091299 -0.052712  0.027709      1.000000
 -0.045650 -0.026356  0.027709      1.000000
  0.000000  0.052712  0.027709      1.000000
  0.045650  0.079067  0.027709      1.000000
  0.091299  0.105423  0.027709      1.000000
  0.136949  0.131779  0.027709      1.000000
 -0.091299  0.000000  0.027709      1.000000
 -0.045650  0.026356  0.027709      1.000000
  0.000000  0.105423  0.027709      1.000000
  0.045650  0.131779  0.027709      1.000000
  0.091299  0.158135  0.027709      1.000000
  0.136949  0.184491  0.027709      1.000000
 -0.091299  0.052712  0.027709      1.000000
 -0.045650  0.079067  0.027709      1.000000
  0.000000  0.158135  0.027709      1.000000
  0.045650  0.184491  0.027709      1.000000
  0.091299  0.210846  0.027709      1.000000
  0.136949  0.237202  0.027709      1.000000
 -0.091299  0.105423  0.027709      1.000000
 -0.045650  0.131779  0.027709      1.000000
  0.000000 -0.105423  0.027709      1.000000
  0.045650 -0.079067  0.027709      1.000000
  0.091299 -0.052712  0.027709      1.000000
  0.136949 -0.026356  0.027709      1.000000
 -0.091299 -0.158135  0.027709      1.000000
 -0.045650 -0.131779  0.027709      1.000000
  0.000000 -0.052712  0.027709      1.000000
  0.045650 -0.026356  0.027709      1.000000
  0.091299 -0.000000  0.027709      1.000000
  0.136949  0.026356  0.027709      1.000000
 -0.091299 -0.105423  0.027709      1.000000
 -0.045650 -0.079067  0.027709      1.000000
  0.000000  0.000000  0.055417      1.000000
  0.045650  0.026356  0.055417      1.000000
  0.091299  0.052712  0.055417      1.000000
  0.136949  0.079067  0.055417      1.000000
 -0.091299 -0.052712  0.055417      1.000000
 -0.045650 -0.026356  0.055417      1.000000
  0.000000  0.052712  0.055417      1.000000
  0.045650  0.079067  0.055417      1.000000
  0.091299  0.105423  0.055417      1.000000
  0.136949  0.131779  0.055417      1.000000
 -0.091299  0.000000  0.055417      1.000000
 -0.045650  0.026356  0.055417      1.000000
  0.000000  0.105423  0.055417      1.000000
  0.045650  0.131779  0.055417      1.000000
  0.091299  0.158135  0.055417      1.000000
  0.136949  0.184491  0.055417      1.000000
 -0.091299  0.052712  0.055417      1.000000
 -0.045650  0.079067  0.055417      1.000000
  0.000000  0.158135  0.055417      1.000000
  0.045650  0.184491  0.055417      1.000000
  0.091299  0.210846  0.055417      1.000000
  0.136949  0.237202  0.055417      1.000000
 -0.091299  0.105423  0.055417      1.000000
 -0.045650  0.131779  0.055417      1.000000
  0.000000 -0.105423  0.055417      1.000000
  0.045650 -0.079067  0.055417      1.000000
  0.091299 -0.052712  0.055417      1.000000
  0.136949 -0.026356  0.055417      1.000000
 -0.091299 -0.158135  0.055417      1.000000
 -0.045650 -0.131779  0.055417      1.000000
  0.000000 -0.052712  0.055417      1.000000
  0.045650 -0.026356  0.055417      1.000000
  0.091299 -0.000000  0.055417      1.000000
  0.136949  0.026356  0.055417      1.000000
 -0.091299 -0.105423  0.055417      1.000000
 -0.045650 -0.079067  0.055417      1.000000
  0.000000  0.000000  0.083126      1.000000
  0.045650  0.026356  0.083126      1.000000
  0.091299  0.052712  0.083126      1.000000
  0.136949  0.079067  0.083126      1.000000
 -0.091299 -0.052712  0.083126      1.000000
 -0.045650 -0.026356  0.083126      1.000000
  0.000000  0.052712  0.083126      1.000000
  0.045650  0.079067  0.083126      1.000000
  0.091299  0.105423  0.083126      1.000000
  0.136949  0.131779  0.083126      1.000000
 -0.091299  0.000000  0.083126      1.000000
 -0.045650  0.026356  0.083126      1.000000
  0.000000  0.105423  0.083126      1.000000
  0.045650  0.131779  0.083126      1.000000
  0.091299  0.158135  0.083126      1.000000
  0.136949  0.184491  0.083126      1.000000
 -0.091299  0.052712  0.083126      1.000000
 -0.045650  0.079067  0.083126      1.000000
  0.000000  0.158135  0.083126      1.000000
  0.045650  0.184491  0.083126      1.000000
  0.091299  0.210846  0.083126      1.000000
  0.136949  0.237202  0.083126      1.000000
 -0.091299  0.105423  0.083126      1.000000
 -0.045650  0.131779  0.083126      1.000000
  0.000000 -0.105423  0.083126      1.000000
  0.045650 -0.079067  0.083126      1.000000
  0.091299 -0.052712  0.083126      1.000000
  0.136949 -0.026356  0.083126      1.000000
 -0.091299 -0.158135  0.083126      1.000000
 -0.045650 -0.131779  0.083126      1.000000
  0.000000 -0.052712  0.083126      1.000000
  0.045650 -0.026356  0.083126      1.000000
  0.091299 -0.000000  0.083126      1.000000
  0.136949  0.026356  0.083126      1.000000
 -0.091299 -0.105423  0.083126      1.000000
 -0.045650 -0.079067  0.083126      1.000000
  0.000000  0.000000 -0.055417      1.000000
  0.045650  0.026356 -0.055417      1.000000
  0.091299  0.052712 -0.055417      1.000000
  0.136949  0.079067 -0.055417      1.000000
 -0.091299 -0.052712 -0.055417      1.000000
 -0.045650 -0.026356 -0.055417      1.000000
  0.000000  0.052712 -0.055417      1.000000
  0.045650  0.079067 -0.055417      1.000000
  0.091299  0.105423 -0.055417      1.000000
  0.136949  0.131779 -0.055417      1.000000
 -0.091299  0.000000 -0.055417      1.000000
 -0.045650  0.026356 -0.055417      1.000000
  0.000000  0.105423 -0.055417      1.000000
  0.045650  0.131779 -0.055417      1.000000
  0.091299  0.158135 -0.055417      1.000000
  0.136949  0.184491 -0.055417      1.000000
 -0.091299  0.052712 -0.055417      1.000000
 -0.045650  0.079067 -0.055417      1.000000
  0.000000  0.158135 -0.055417      1.000000
  0.045650  0.184491 -0.055417      1.000000
  0.091299  0.210846 -0.055417      1.000000
  0.136949  0.237202 -0.055417      1.000000
 -0.091299  0.105423 -0.055417      1.000000
 -0.045650  0.131779 -0.055417      1.000000
  0.000000 -0.105423 -0.055417      1.000000
  0.045650 -0.079067 -0.055417      1.000000
  0.091299 -0.052712 -0.055417      1.000000
  0.136949 -0.026356 -0.055417      1.000000
 -0.091299 -0.158135 -0.055417      1.000000
 -0.045650 -0.131779 -0.055417      1.000000
  0.000000 -0.052712 -0.055417      1.000000
  0.045650 -0.026356 -0.055417      1.000000
  0.091299 -0.000000 -0.055417      1.000000
  0.136949  0.026356 -0.055417      1.000000
 -0.091299 -0.105423 -0.055417      1.000000
 -0.045650 -0.079067 -0.055417      1.000000
  0.000000  0.000000 -0.027709      1.000000
  0.045650  0.026356 -0.027709      1.000000
  0.091299  0.052712 -0.027709      1.000000
  0.136949  0.079067 -0.027709      1.000000
 -0.091299 -0.052712 -0.027709      1.000000
 -0.045650 -0.026356 -0.027709      1.000000
  0.000000  0.052712 -0.027709      1.000000
  0.045650  0.079067 -0.027709      1.000000
  0.091299  0.105423 -0.027709      1.000000
  0.136949  0.131779 -0.027709      1.000000
 -0.091299  0.000000 -0.027709      1.000000
 -0.045650  0.026356 -0.027709      1.000000
  0.000000  0.105423 -0.027709      1.000000
  0.045650  0.131779 -0.027709      1.000000
  0.091299  0.158135 -0.027709      1.000000
  0.136949  0.184491 -0.027709      1.000000
 -0.091299  0.052712 -0.027709      1.000000
 -0.045650  0.079067 -0.027709      1.000000
  0.000000  0.158135 -0.027709      1.000000
  0.045650  0.184491 -0.027709      1.000000
  0.091299  0.210846 -0.027709      1.000000
  0.136949  0.237202 -0.027709      1.000000
 -0.091299  0.105423 -0.027709      1.000000
 -0.045650  0.131779 -0.027709      1.000000
  0.000000 -0.105423 -0.027709      1.000000
  0.045650 -0.079067 -0.027709      1.000000
  0.091299 -0.052712 -0.027709      1.000000
  0.136949 -0.026356 -0.027709      1.000000
 -0.091299 -0.158135 -0.027709      1.000000
 -0.045650 -0.131779 -0.027709      1.000000
  0.000000 -0.052712 -0.027709      1.000000
  0.045650 -0.026356 -0.027709      1.000000
  0.091299 -0.000000 -0.027709      1.000000
  0.136949  0.026356 -0.027709      1.000000
 -0.091299 -0.105423 -0.027709      1.000000
 -0.045650 -0.079067 -0.027709      1.000000
 
 TETIRR: Found   1296 inequivalent tetrahedra from     1296
 files read and symmetry switched off, memory is now:
 total amount of memory used by VASP on root node   263393. kBytes
========================================================================

   base      :      30000. kBytes
   nonl-proj :      80434. kBytes
   fftplans  :       1680. kBytes
   grid      :       3557. kBytes
   one-center:         46. kBytes
   HF        :        259. kBytes
   nonlr-proj:        551. kBytes
   wavefun   :     146866. kBytes
 
 Basis sets for responsefunctions:
 =================================
 k-point  1 :   0.0000 0.0000 0.0000  plane waves:     701
 k-point  2 :   0.1667-0.0000 0.0000  plane waves:     677
 k-point  3 :   0.3333 0.0000 0.0000  plane waves:     686
 k-point  4 :   0.5000-0.0000 0.0000  plane waves:     684
 k-point  5 :   0.1667 0.1667 0.0000  plane waves:     685
 k-point  6 :   0.3333 0.1667 0.0000  plane waves:     685
 k-point  7 :   0.3333 0.3333 0.0000  plane waves:     699
 k-point  8 :   0.0000 0.0000 0.1667  plane waves:     682
 k-point  9 :   0.1667-0.0000 0.1667  plane waves:     684
 k-point 10 :   0.3333 0.0000 0.1667  plane waves:     688
 k-point 11 :   0.5000-0.0000 0.1667  plane waves:     692
 k-point 12 :  -0.3333-0.0000 0.1667  plane waves:     688
 k-point 13 :  -0.1667 0.0000 0.1667  plane waves:     684
 k-point 14 :   0.1667 0.1667 0.1667  plane waves:     679
 k-point 15 :   0.3333 0.1667 0.1667  plane waves:     688
 k-point 16 :   0.5000 0.1667 0.1667  plane waves:     688
 k-point 17 :   0.3333 0.3333 0.1667  plane waves:     708
 k-point 18 :   0.0000 0.0000 0.3333  plane waves:     670
 k-point 19 :   0.1667-0.0000 0.3333  plane waves:     678
 k-point 20 :   0.3333 0.0000 0.3333  plane waves:     685
 k-point 21 :   0.5000-0.0000 0.3333  plane waves:     694
 k-point 22 :  -0.3333-0.0000 0.3333  plane waves:     685
 k-point 23 :  -0.1667 0.0000 0.3333  plane waves:     678
 k-point 24 :   0.1667 0.1667 0.3333  plane waves:     684
 k-point 25 :   0.3333 0.1667 0.3333  plane waves:     691
 k-point 26 :   0.5000 0.1667 0.3333  plane waves:     691
 k-point 27 :   0.3333 0.3333 0.3333  plane waves:     696
 k-point 28 :   0.0000 0.0000 0.5000  plane waves:     676
 k-point 29 :   0.1667-0.0000 0.5000  plane waves:     674
 k-point 30 :   0.3333 0.0000 0.5000  plane waves:     694
 k-point 31 :   0.5000-0.0000 0.5000  plane waves:     692
 k-point 32 :   0.1667 0.1667 0.5000  plane waves:     684
 k-point 33 :   0.3333 0.1667 0.5000  plane waves:     696
 k-point 34 :   0.3333 0.3333 0.5000  plane waves:     690
 k-point 35 :  -0.3333-0.0000 0.0000  plane waves:     686
 k-point 36 :  -0.1667 0.0000 0.0000  plane waves:     677
 k-point 37 :   0.0000 0.1667 0.0000  plane waves:     677
 k-point 38 :  -0.5000 0.1667 0.0000  plane waves:     685
 k-point 39 :  -0.3333 0.1667 0.0000  plane waves:     685
 k-point 40 :  -0.1667 0.1667 0.0000  plane waves:     677
 k-point 41 :  -0.0000 0.3333 0.0000  plane waves:     686
 k-point 42 :   0.1667 0.3333 0.0000  plane waves:     685
 k-point 43 :  -0.5000 0.3333 0.0000  plane waves:     685
 k-point 44 :  -0.3333 0.3333 0.0000  plane waves:     686
 k-point 45 :  -0.1667 0.3333 0.0000  plane waves:     685
 k-point 46 :  -0.0000-0.5000 0.0000  plane waves:     684
 k-point 47 :   0.1667-0.5000 0.0000  plane waves:     685
 k-point 48 :   0.3333-0.5000 0.0000  plane waves:     685
 k-point 49 :  -0.5000 0.5000 0.0000  plane waves:     684
 k-point 50 :  -0.3333 0.5000 0.0000  plane waves:     685
 k-point 51 :  -0.1667 0.5000 0.0000  plane waves:     685
 k-point 52 :   0.0000-0.3333 0.0000  plane waves:     686
 k-point 53 :   0.1667-0.3333 0.0000  plane waves:     685
 k-point 54 :   0.3333-0.3333 0.0000  plane waves:     686
 k-point 55 :   0.5000-0.3333 0.0000  plane waves:     685
 k-point 56 :  -0.3333-0.3333 0.0000  plane waves:     699
 k-point 57 :  -0.1667-0.3333 0.0000  plane waves:     685
 k-point 58 :  -0.0000-0.1667 0.0000  plane waves:     677
 k-point 59 :   0.1667-0.1667 0.0000  plane waves:     677
 k-point 60 :   0.3333-0.1667 0.0000  plane waves:     685
 k-point 61 :   0.5000-0.1667 0.0000  plane waves:     685
 k-point 62 :  -0.3333-0.1667 0.0000  plane waves:     685
 k-point 63 :  -0.1667-0.1667 0.0000  plane waves:     685
 k-point 64 :   0.0000 0.1667 0.1667  plane waves:     684
 k-point 65 :  -0.3333 0.1667 0.1667  plane waves:     679
 k-point 66 :  -0.1667 0.1667 0.1667  plane waves:     684
 k-point 67 :  -0.0000 0.3333 0.1667  plane waves:     688
 k-point 68 :   0.1667-0.6667 0.1667  plane waves:     688
 k-point 69 :  -0.5000 0.3333 0.1667  plane waves:     688
 k-point 70 :  -0.3333 0.3333 0.1667  plane waves:     688
 k-point 71 :  -0.1667 0.3333 0.1667  plane waves:     679
 k-point 72 :  -0.0000-0.5000 0.1667  plane waves:     692
 k-point 73 :   0.1667-0.5000 0.1667  plane waves:     688
 k-point 74 :  -0.6667 0.5000 0.1667  plane waves:     688
 k-point 75 :  -0.5000 0.5000 0.1667  plane waves:     692
 k-point 76 :  -0.3333 0.5000 0.1667  plane waves:     688
 k-point 77 :  -0.1667-0.5000 0.1667  plane waves:     688
 k-point 78 :   0.0000-0.3333 0.1667  plane waves:     688
 k-point 79 :   0.1667-0.3333 0.1667  plane waves:     679
 k-point 80 :   0.3333-0.3333 0.1667  plane waves:     688
 k-point 81 :  -0.5000 0.6667 0.1667  plane waves:     688
 k-point 82 :  -0.3333 0.6667 0.1667  plane waves:     708
 k-point 83 :  -0.1667-0.3333 0.1667  plane waves:     688
 k-point 84 :  -0.0000-0.1667 0.1667  plane waves:     684
 k-point 85 :   0.1667-0.1667 0.1667  plane waves:     684
 k-point 86 :   0.3333-0.1667 0.1667  plane waves:     679
 k-point 87 :   0.5000-0.1667 0.1667  plane waves:     688
 k-point 88 :   0.6667-0.1667 0.1667  plane waves:     688
 k-point 89 :  -0.1667-0.1667 0.1667  plane waves:     679
 k-point 90 :   0.0000 0.1667 0.3333  plane waves:     678
 k-point 91 :  -0.3333 0.1667 0.3333  plane waves:     684
 k-point 92 :  -0.1667 0.1667 0.3333  plane waves:     678
 k-point 93 :  -0.0000 0.3333 0.3333  plane waves:     685
 k-point 94 :   0.1667-0.6667 0.3333  plane waves:     691
 k-point 95 :  -0.5000 0.3333 0.3333  plane waves:     691
 k-point 96 :  -0.3333 0.3333 0.3333  plane waves:     685
 k-point 97 :  -0.1667 0.3333 0.3333  plane waves:     684
 k-point 98 :  -0.0000-0.5000 0.3333  plane waves:     694
 k-point 99 :   0.1667-0.5000 0.3333  plane waves:     691
 k-point ** :  -0.6667 0.5000 0.3333  plane waves:     691
 k-point ** :  -0.5000 0.5000 0.3333  plane waves:     694
 k-point ** :  -0.3333 0.5000 0.3333  plane waves:     691
 k-point ** :  -0.1667-0.5000 0.3333  plane waves:     691
 k-point ** :   0.0000-0.3333 0.3333  plane waves:     685
 k-point ** :   0.1667-0.3333 0.3333  plane waves:     684
 k-point ** :   0.3333-0.3333 0.3333  plane waves:     685
 k-point ** :  -0.5000 0.6667 0.3333  plane waves:     691
 k-point ** :  -0.3333 0.6667 0.3333  plane waves:     696
[...]
     10       2.4358       2.4164       2.4186       2.4120       0.7215       2.0000
     11       2.7994       2.7641       2.7694       2.7585       0.7327       2.0000
     12       2.9384       2.9112       2.9129       2.9035       0.7303       2.0000
     13       3.8889       3.8615       3.8643       3.8556       0.7388       2.0000
     14       8.3436       8.3174       8.3167       8.3086       0.7688       0.0000
     15      10.1322      10.1073      10.1046      10.0965       0.7731       0.0000
     16      11.3814      11.3579      11.3540      11.3459       0.7731       0.0000
     17      11.4312      11.4038      11.4034      11.3952       0.7722       0.0000
     18      12.6473      12.6404      12.6385      12.6360       0.7799       0.0000
     19      13.9898      13.9943      13.9919      13.9926       0.7709       0.0000
     20      14.8498      14.8548      14.8498      14.8499       0.7727       0.0000
     21      15.0076      14.9973      14.9968      14.9937       0.7789       0.0000
     22      16.9706      16.9640      16.9628      16.9604       0.7654       0.0000
     23      17.8059      17.7963      17.7943      17.7906       0.7616       0.0000
     24      18.1561      18.1563      18.1532      18.1523       0.7680       0.0000
     25      18.9138      18.9148      18.9129      18.9126       0.7646       0.0000
     26      19.5313      19.5226      19.5194      19.5162       0.7871       0.0000
     27      20.3719      20.3722      20.3700      20.3695       0.7771       0.0000
     28      20.9821      20.9758      20.9715      20.9684       0.7772       0.0000
     29      21.3497      21.3540      21.3508      21.3511       0.7793       0.0000
     30      22.2731      22.2654      22.2621      22.2591       0.7923       0.0000
     31      24.7072      24.7146      24.7128      24.7144       0.7870       0.0000
     32      24.9263      24.9258      24.9228      24.9219       0.7852       0.0000
 

 k-point  30 :       0.3333    0.0000    0.5000
  band No. DFT-energies  QP-energies  QP-e(diag)   sigma(DFT)    Z            occupation

      1     -19.5697     -19.6912     -19.6853     -19.7289       0.7264       2.0000
      2     -19.5316     -19.6513     -19.6497     -19.6916       0.7379       2.0000
      3     -19.4651     -19.5854     -19.5845     -19.6303       0.7230       2.0000
      4     -19.4267     -19.5443     -19.5431     -19.5868       0.7272       2.0000
      5     -19.4245     -19.5437     -19.5442     -19.5875       0.7338       2.0000
      6      -8.2792      -8.3212      -8.3110      -8.3300       0.6271       2.0000
      7      -7.1507      -7.1840      -7.1801      -7.1967       0.6387       2.0000
      8      -2.1321      -2.1670      -2.1612      -2.1723       0.7237       2.0000
      9      -0.1198      -0.1458      -0.1432      -0.1510       0.7493       2.0000
     10       1.9830       1.9463       1.9521       1.9404       0.7265       2.0000
     11       2.1728       2.1481       2.1503       2.1416       0.7197       2.0000
     12       2.9480       2.9276       2.9264       2.9182       0.7251       2.0000
     13       3.6273       3.6030       3.6051       3.5970       0.7347       2.0000
     14       7.2688       7.2504       7.2503       7.2450       0.7765       0.0000
     15      10.1440      10.1312      10.1271      10.1224       0.7821       0.0000
     16      11.3249      11.3166      11.3151      11.3123       0.7799       0.0000
     17      12.1330      12.1247      12.1226      12.1196       0.7725       0.0000
     18      12.3438      12.3173      12.3140      12.3042       0.7541       0.0000
     19      15.1869      15.1828      15.1776      15.1747       0.7615       0.0000
     20      15.7053      15.7020      15.6980      15.6957       0.7640       0.0000
     21      16.6052      16.6035      16.6042      16.6039       0.7633       0.0000
     22      16.6110      16.6068      16.6030      16.6006       0.7706       0.0000
     23      17.4989      17.5031      17.5007      17.5012       0.7666       0.0000
     24      18.4662      18.4638      18.4623      18.4611       0.7624       0.0000
     25      18.9915      18.9841      18.9825      18.9799       0.7719       0.0000
     26      21.5813      21.5718      21.5684      21.5645       0.7703       0.0000
     27      22.1660      22.1636      22.1607      22.1591       0.7732       0.0000
     28      23.4490      23.4350      23.4312      23.4262       0.7812       0.0000
     29      24.7158      24.6988      24.6973      24.6917       0.7698       0.0000
     30      24.7526      24.7445      24.7430      24.7402       0.7701       0.0000
     31      25.6719      25.6592      25.6540      25.6489       0.7788       0.0000
     32      25.8952      25.8800      25.8788      25.8742       0.7820       0.0000
 

 k-point  31 :       0.5000   -0.0000    0.5000
  band No. DFT-energies  QP-energies  QP-e(diag)   sigma(DFT)    Z            occupation

      1     -19.5771     -19.6987     -19.6919     -19.7356       0.7241       2.0000
      2     -19.5312     -19.6490     -19.6473     -19.6888       0.7364       2.0000
      3     -19.4705     -19.5914     -19.5902     -19.6362       0.7226       2.0000
      4     -19.4144     -19.5320     -19.5313     -19.5739       0.7328       2.0000
      5     -19.4144     -19.5318     -19.5316     -19.5742       0.7334       2.0000
      6      -7.5273      -7.5673      -7.5577      -7.5753       0.6334       2.0000
      7      -7.0911      -7.1283      -7.1209      -7.1370       0.6494       2.0000
      8      -3.0565      -3.0920      -3.0834      -3.0938       0.7219       2.0000
      9      -0.9393      -0.9629      -0.9593      -0.9661       0.7450       2.0000
     10       1.6530       1.6160       1.6242       1.6133       0.7265       2.0000
     11       2.1560       2.1300       2.1327       2.1235       0.7188       2.0000
     12       3.2857       3.2621       3.2619       3.2530       0.7282       2.0000
     13       3.4938       3.4703       3.4714       3.4631       0.7318       2.0000
     14       6.7745       6.7583       6.7577       6.7529       0.7794       0.0000
     15       9.8218       9.8126       9.8076       9.8037       0.7833       0.0000
     16      10.8066      10.8049      10.8058      10.8055       0.7859       0.0000
     17      11.4659      11.4574      11.4558      11.4531       0.7840       0.0000
     18      12.4974      12.4723      12.4687      12.4594       0.7535       0.0000
     19      15.7230      15.7293      15.7253      15.7260       0.7670       0.0000
     20      16.5011      16.5106      16.5040      16.5049       0.7579       0.0000
     21      17.4257      17.4344      17.4332      17.4355       0.7688       0.0000
     22      17.5682      17.5608      17.5561      17.5518       0.7379       0.0000
     23      18.9471      18.9381      18.9353      18.9316       0.7607       0.0000
     24      19.4628      19.4408      19.4407      19.4336       0.7558       0.0000
     25      20.4758      20.4521      20.4500      20.4421       0.7650       0.0000
     26      21.1172      21.1043      21.1037      21.0997       0.7677       0.0000
     27      22.6746      22.6659      22.6635      22.6601       0.7618       0.0000
     28      22.9475      22.9349      22.9306      22.9255       0.7694       0.0000
     29      23.0010      22.9870      22.9853      22.9809       0.7826       0.0000
     30      24.7225      24.7194      24.7137      24.7114       0.7893       0.0000
     31      25.0576      25.0446      25.0358      25.0303       0.7978       0.0000
     32      25.5539      25.5429      25.5366      25.5319       0.7854       0.0000
 

 k-point  32 :       0.1667    0.1667    0.5000
  band No. DFT-energies  QP-energies  QP-e(diag)   sigma(DFT)    Z            occupation

      1     -19.5618     -19.6827     -19.6776     -19.7203       0.7304       2.0000
      2     -19.5368     -19.6566     -19.6547     -19.6972       0.7349       2.0000
      3     -19.4563     -19.5770     -19.5762     -19.6212       0.7275       2.0000
      4     -19.4449     -19.5630     -19.5625     -19.6071       0.7251       2.0000
      5     -19.4255     -19.5432     -19.5427     -19.5863       0.7288       2.0000
      6      -8.5283      -8.5706      -8.5596      -8.5786       0.6224       2.0000
      7      -7.2570      -7.2893      -7.2838      -7.2992       0.6353       2.0000
      8      -1.6151      -1.6491      -1.6469      -1.6587       0.7290       2.0000
      9       0.5534       0.5240       0.5273       0.5180       0.7389       2.0000
     10       1.3679       1.3361       1.3417       1.3317       0.7253       2.0000
     11       2.3047       2.2826       2.2868       2.2799       0.7202       2.0000
     12       3.1978       3.1747       3.1745       3.1660       0.7309       2.0000
     13       3.2980       3.2739       3.2747       3.2662       0.7319       2.0000
     14       8.2709       8.2468       8.2462       8.2386       0.7644       0.0000
     15      10.6808      10.6632      10.6608      10.6550       0.7751       0.0000
     16      11.6781      11.6632      11.6613      11.6564       0.7733       0.0000
     17      11.8196      11.7951      11.7887      11.7790       0.7624       0.0000
     18      12.4945      12.4842      12.4835      12.4804       0.7761       0.0000
     19      13.9121      13.9087      13.9077      13.9065       0.7785       0.0000
     20      14.9426      14.9400      14.9387      14.9376       0.7782       0.0000
     21      15.0327      15.0365      15.0317      15.0314       0.7708       0.0000
     22      17.0893      17.0964      17.0942      17.0958       0.7600       0.0000
     23      17.8075      17.7990      17.7975      17.7945       0.7644       0.0000
     24      18.9219      18.9122      18.9112      18.9081       0.7698       0.0000
     25      19.7194      19.7162      19.7110      19.7085       0.7692       0.0000
     26      21.3873      21.3806      21.3776      21.3748       0.7781       0.0000
     27      21.6625      21.6632      21.6581      21.6569       0.7778       0.0000
     28      22.2471      22.2341      22.2315      22.2272       0.7814       0.0000
     29      23.3902      23.3850      23.3836      23.3816       0.7732       0.0000
     30      23.5020      23.4937      23.4907      23.4877       0.7889       0.0000
     31      25.1858      25.1723      25.1682      25.1631       0.7714       0.0000
     32      26.2397      26.2275      26.2254      26.2211       0.7666       0.0000
 

 k-point  33 :       0.3333    0.1667    0.5000
  band No. DFT-energies  QP-energies  QP-e(diag)   sigma(DFT)    Z            occupation

      1     -19.5668     -19.6881     -19.6817     -19.7243       0.7299       2.0000
      2     -19.5360     -19.6559     -19.6530     -19.6950       0.7355       2.0000
      3     -19.4607     -19.5810     -19.5802     -19.6253       0.7256       2.0000
      4     -19.4283     -19.5463     -19.5458     -19.5899       0.7272       2.0000
      5     -19.4154     -19.5319     -19.5316     -19.5743       0.7313       2.0000
      6      -7.6435      -7.6842      -7.6742      -7.6919       0.6356       2.0000
      7      -6.9819      -7.0178      -7.0132      -7.0302       0.6483       2.0000
      8      -2.8096      -2.8478      -2.8390      -2.8501       0.7257       2.0000
      9      -0.5379      -0.5627      -0.5579      -0.5647       0.7490       2.0000
     10       0.6834       0.6530       0.6592       0.6505       0.7355       2.0000
     11       1.5356       1.5115       1.5176       1.5106       0.7208       2.0000
     12       3.3787       3.3542       3.3539       3.3448       0.7308       2.0000
     13       3.5587       3.5350       3.5328       3.5233       0.7316       2.0000
     14       7.8798       7.8603       7.8590       7.8526       0.7655       0.0000
     15      10.4286      10.4225      10.4194      10.4169       0.7816       0.0000
     16      11.3611      11.3469      11.3433      11.3381       0.7723       0.0000
     17      11.8172      11.8064      11.8051      11.8015       0.7720       0.0000
     18      12.5900      12.5766      12.5758      12.5716       0.7765       0.0000
     19      14.2262      14.2411      14.2396      14.2433       0.7843       0.0000
     20      15.4812      15.4694      15.4673      15.4630       0.7682       0.0000
     21      15.8121      15.8068      15.8034      15.8008       0.7626       0.0000
     22      17.4963      17.4939      17.4898      17.4876       0.7494       0.0000
     23      19.4328      19.4334      19.4299      19.4291       0.7649       0.0000
     24      19.8397      19.8201      19.8166      19.8092       0.7585       0.0000
     25      21.1465      21.1325      21.1303      21.1253       0.7635       0.0000
     26      21.5459      21.5363      21.5319      21.5278       0.7739       0.0000
     27      22.2431      22.2377      22.2356      22.2332       0.7641       0.0000
     28      23.1478      23.1361      23.1296      23.1245       0.7823       0.0000
     29      23.7542      23.7475      23.7437      23.7408       0.7811       0.0000
     30      24.9749      24.9694      24.9667      24.9644       0.7852       0.0000
     31      25.7739      25.7625      25.7580      25.7534       0.7762       0.0000
     32      26.2013      26.1867      26.1834      26.1784       0.7789       0.0000
 

 k-point  34 :       0.3333    0.3333    0.5000
  band No. DFT-energies  QP-energies  QP-e(diag)   sigma(DFT)    Z            occupation

      1     -19.5513     -19.6713     -19.6662     -19.7081       0.7326       2.0000
      2     -19.5513     -19.6713     -19.6662     -19.7081       0.7326       2.0000
      3     -19.4389     -19.5592     -19.5587     -19.6029       0.7303       2.0000
      4     -19.4389     -19.5592     -19.5587     -19.6029       0.7303       2.0000
      5     -19.4197     -19.5365     -19.5361     -19.5793       0.7291       2.0000
      6      -7.0680      -7.1067      -7.1002      -7.1180       0.6444       2.0000
      7      -7.0680      -7.1067      -7.1002      -7.1179       0.6444       2.0000
      8      -3.1141      -3.1565      -3.1464      -3.1585       0.7282       2.0000
      9      -0.1372      -0.1623      -0.1555      -0.1617       0.7459       2.0000
     10      -0.1372      -0.1623      -0.1554      -0.1617       0.7459       2.0000
     11       0.3789       0.3563       0.3640       0.3584       0.7302       2.0000
     12       3.6457       3.6200       3.6178       3.6077       0.7330       2.0000
     13       3.6457       3.6201       3.6179       3.6077       0.7330       2.0000
     14       8.5604       8.5390       8.5384       8.5312       0.7534       0.0000
     15      10.6271      10.6195      10.6169      10.6140       0.7790       0.0000
     16      10.6271      10.6195      10.6169      10.6140       0.7790       0.0000
     17      12.5140      12.5167      12.5173      12.5183       0.7719       0.0000
     18      13.6345      13.6395      13.6341      13.6340       0.7638       0.0000
     19      14.8683      14.8561      14.8553      14.8517       0.7800       0.0000
     20      14.8777      14.8658      14.8630      14.8585       0.7697       0.0000
     21      14.8777      14.8658      14.8630      14.8586       0.7697       0.0000
     22      17.2200      17.2068      17.2045      17.1995       0.7567       0.0000
     23      17.2200      17.2068      17.2045      17.1995       0.7567       0.0000
     24      21.1660      21.1696      21.1640      21.1633       0.7637       0.0000
     25      21.1660      21.1697      21.1640      21.1634       0.7637       0.0000
     26      23.3654      23.3537      23.3474      23.3425       0.7836       0.0000
     27      23.3654      23.3537      23.3474      23.3425       0.7836       0.0000
     28      24.3350      24.3213      24.3187      24.3139       0.7751       0.0000
     29      24.3580      24.3422      24.3396      24.3341       0.7711       0.0000
     30      25.3001      25.2984      25.2955      25.2942       0.7922       0.0000
     31      25.3984      25.3810      25.3742      25.3667       0.7638       0.0000
 
     32      24.8274      24.8274      24.8274      24.8274       1.0000       0.0000


--------------------------------------------------------------------------------------------------------


 BZINTS: Fermi energy:  4.155970; 26.000000 electrons
         Band energy:-210.765783;  BLOECHL correction:  0.000000

IMPORTANT INFORMATION: All symmetrisations will be switched off!
NOSYMM: (Re-)initialisation of all symmetry stuff for point group C_1.

   GW_DIAG:  cpu time    0.8720: real time    0.8708
 BZINTS: Fermi energy:  4.155970; 26.000000 electrons
         Band energy:-210.765783;  BLOECHL correction:  0.000000
    GWLOOP:  cpu time 2195.2200: real time 2198.9689
  LATTYP: Found a hexagonal cell.
 ALAT       =     3.6510002172
 C/A-ratio  =     1.6474937393
  
  Lattice vectors:
  
 A1 = (   3.6510000000,   0.0000000000,   0.0000000000)
 A2 = (  -1.8255000000,   3.1618590000,   0.0000000000)
 A3 = (   0.0000000000,   0.0000000000,   6.0150000000)


Analysis of symmetry for initial positions (statically):
=====================================================================
 Subroutine PRICEL returns:
 Original cell was already a primitive cell.
 

 Routine SETGRP: Setting up the symmetry group for a 
 hexagonal supercell.


 Subroutine GETGRP returns: Found 12 space group operations
 (whereof 12 operations were pure point group operations)
 out of a pool of 24 trial point group operations.


The static configuration has the point symmetry D_3d.


Analysis of symmetry for dynamics (positions and initial velocities):
=====================================================================
 Subroutine PRICEL returns:
 Original cell was already a primitive cell.
 

 Routine SETGRP: Setting up the symmetry group for a 
 hexagonal supercell.


 Subroutine GETGRP returns: Found 12 space group operations
 (whereof 12 operations were pure point group operations)
 out of a pool of 24 trial point group operations.


The dynamic configuration has the point symmetry D_3d.


 Subroutine INISYM returns: Found 12 space group operations
 (whereof 12 operations are pure point group operations),
 and found     1 'primitive' translations

 writing wavefunctions
   RESPFUN:  cpu time  109.0600: real time  109.4166
    4ORBIT:  cpu time    0.0000: real time    0.0000
 BZINTS: Fermi energy:  4.155970; 26.000000 electrons
         Band energy:-210.765783;  BLOECHL correction:  0.000000

 total amount of memory used by VASP on root node   133797. kBytes
========================================================================

   base      :      30000. kBytes
   nonl-proj :      12713. kBytes
   fftplans  :       1680. kBytes
   grid      :       3557. kBytes
   one-center:         46. kBytes
   HF        :        259. kBytes
   nonlr-proj:        551. kBytes
   wavefun   :      84991. kBytes
   2eintegral:          0. kBytes
   fockhandle:          0. kBytes
   response  :          0. kBytes
   cacher    :          0. kBytes
 
  
  
 General timing and accounting informations for this job:
 ========================================================
  
                  Total CPU time used (sec):     8998.956
                            User time (sec):     8960.712
                          System time (sec):       38.244
                         Elapsed time (sec):     9012.440
  
                   Maximum memory used (kb):     1062328.
                   Average memory used (kb):           0.
  
                          Minor page faults:      1818264
                          Major page faults:            0
                 Voluntary context switches:          240
