 
             +---------------------------------------------------+
             |                                                   |
             |                   WANNIER90                       |
             |                                                   |
             +---------------------------------------------------+
             |                                                   |
             |        Welcome to the Maximally-Localized         |
             |        Generalized Wannier Functions code         |
             |            http://www.wannier.org                 |
             |                                                   |
             |  Wannier90 Authors:                               |
             |    Arash A. Mostofi   (Imperial College London)   |
             |    Jonathan R. Yates  (University of Oxford)      |
             |    Young-Su Lee       (KIST, S. Korea)            |
             |                                                   |
             |  Wannier90 Contributors:                          |
             |    Matthew Shelley    (Imperial College London)   |
             |    Nicolas Poilvert   (MIT)                       |
             |                                                   |
             |  Wannier77 Authors:                               |
             |    Nicola Marzari     (University of Oxford)      |
             |    Ivo Souza          (UC Berkeley)               |
             |    David Vanderbilt   (Rutgers University)        |
             |                                                   |
             |  Please cite                                      |
             |                                                   |
             |  [ref] "Wannier90: A Tool for Obtaining Maximally |
             |         Localised Wannier Functions"              |
             |        A. A. Mostofi, J. R. Yates, Y.-S. Lee,     |
             |        I. Souza, D. Vanderbilt and N. Marzari     |
             |        Comput. Phys. Commun. 178, 685 (2008)      |
             |                                                   |
             |  in any publications arising from the use of      |
             |  this code. For the method please cite            |
             |                                                   |
             |  [ref] "Maximally Localized Generalised Wannier   |
             |         Functions for Composite Energy Bands"     |
             |         N. Marzari and D. Vanderbilt              |
             |         Phys. Rev. B 56 12847 (1997)              |
             |                                                   |
             |  [ref] "Maximally Localized Wannier Functions     |
             |         for Entangled Energy Bands"               |
             |         I. Souza, N. Marzari and D. Vanderbilt    |
             |         Phys. Rev. B 65 035109 (2001)             |
             |                                                   |
             |                                                   |
             | Copyright (c) 1996-2010                           |
             |        A. A. Mostofi, J. R. Yates, Y.-S. Lee,     |
             |        I. Souza, D. Vanderbilt and N. Marzari     |
             |                                                   |
             |        Release: 1.2        24th Jan 2010          |
             |                                                   |
             | This program is free software; you can            |
             | redistribute it and/or modify it under the terms  |
             | of the GNU General Public License as published by |
             | the Free Software Foundation; either version 2 of |
             | the License, or (at your option) any later version|
             |                                                   |
             | This program is distributed in the hope that it   |
             | will be useful, but WITHOUT ANY WARRANTY; without |
             | even the implied warranty of MERCHANTABILITY or   |
             | FITNESS FOR A PARTICULAR PURPOSE. See the GNU     |
             | General Public License for more details.          |
             |                                                   |
             | You should have received a copy of the GNU General|
             | Public License along with this program; if not,   |
             | write to the Free Software Foundation, Inc.,      |
             | 675 Mass Ave, Cambridge, MA 02139, USA.           |
             |                                                   |
             +---------------------------------------------------+
             |    Execution started on 30Oct2016 at 18:45:14     |
             +---------------------------------------------------+
 
                                    ------
                                    SYSTEM
                                    ------
 
                              Lattice Vectors (Ang)
                    a_1     3.651000   0.000000   0.000000
                    a_2    -1.825500   3.161859   0.000000
                    a_3     0.000000   0.000000   6.015000
 
                   Unit Cell Volume:      69.43684  (Ang^3)
 
                        Reciprocal-Space Vectors (Ang^-1)
                    b_1     1.720949   0.993590   0.000000
                    b_2     0.000000   1.987181   0.000000
                    b_3     0.000000   0.000000   1.044586
  
 *----------------------------------------------------------------------------*
 |   Site       Fractional Coordinate          Cartesian Coordinate (Ang)     |
 +----------------------------------------------------------------------------+
 | Sn   1   0.00000   0.00000   0.00000   |    0.00000   0.00000   0.00000    |
 | S    1   0.33333   0.66667   0.24520   |    0.00000   2.10790   1.47488    |
 | S    2   0.66667   0.33333   0.75480   |    1.82550   1.05395   4.54012    |
 *----------------------------------------------------------------------------*
  
                                ------------
                                K-POINT GRID
                                ------------
  
             Grid size =  6 x  6 x  6      Total points =  216
  
  
 *---------------------------------- MAIN ------------------------------------*
 |  Number of Wannier Functions               :                64             |
 |  Number of input Bloch states              :                64             |
 |  Output verbosity (1=low, 5=high)          :                 1             |
 |  Timing Level (1=low, 5=high)              :                 1             |
 |  Optimisation (0=memory, 3=speed)          :                 3             |
 |  Length Unit                               :               Ang             |
 |  Post-processing setup (write *.nnkp)      :                 F             |
 |  Using Gamma-only branch of algorithms     :                 F             |
 *----------------------------------------------------------------------------*
 *------------------------------- WANNIERISE ---------------------------------*
 |  Total number of iterations                :               100             |
 |  Number of CG steps before reset           :                 5             |
 |  Trial step length for line search         :             2.000             |
 |  Convergence tolerence                     :         0.100E-09             |
 |  Convergence window                        :                -1             |
 |  Iterations between writing output         :                 1             |
 |  Iterations between backing up to disk     :               100             |
 |  Write r^2_nm to file                      :                 F             |
 |  Write xyz WF centres to file              :                 F             |
 |  Use guiding centre to control phases      :                 F             |
 *----------------------------------------------------------------------------*
 *-------------------------------- PLOTTING ----------------------------------*
 |  Plotting interpolated bandstructure       :                 T             |
 |   Number of K-path sections                :                 7             |
 |   Divisions along first K-path section     :                51             |
 |   Output format                            :          'gnuplot             |
 |   Output mode                              :               s-k             |
 *----------------------------------------------------------------------------*
 |   K-space path sections:                                                   |
 |    From:  G    0.000  0.000  0.000     To:  A    0.000  0.000  0.500       |
 |    From:  A    0.000  0.000  0.500     To:  H    0.333  0.333  0.500       |
 |    From:  H    0.333  0.333  0.500     To:  K    0.333  0.333  0.000       |
 |    From:  K    0.333  0.333  0.000     To:  G    0.000  0.000  0.000       |
 |    From:  G    0.000  0.000  0.000     To:  M    0.500  0.000  0.000       |
 |    From:  M    0.500  0.000  0.000     To:  L    0.500  0.000  0.500       |
 |    From:  L    0.500  0.000  0.500     To:  H    0.333  0.333  0.500       |
 *----------------------------------------------------------------------------*
 Time to read parameters        0.016 (sec)

 *---------------------------------- K-MESH ----------------------------------*
 +----------------------------------------------------------------------------+
 |                    Distance to Nearest-Neighbour Shells                    |
 |                    ------------------------------------                    |
 |          Shell             Distance (Ang^-1)          Multiplicity         |
 |          -----             -----------------          ------------         |
 |             1                   0.174098                      2            |
 |             2                   0.331197                      6            |
 |             3                   0.348195                      2            |
 |             4                   0.374168                     12            |
 |             5                   0.480553                     12            |
 |             6                   0.522293                      2            |
 |             7                   0.573650                      6            |
 |             8                   0.599486                     12            |
 |             9                   0.618451                     12            |
 |            10                   0.662394                      6            |
 |            11                   0.671054                     12            |
 |            12                   0.684891                     12            |
 +----------------------------------------------------------------------------+
 | The b-vectors are chosen automatically                                     |
 | The following shells are used:   1,  2                                     |
 +----------------------------------------------------------------------------+
 |                        Shell   # Nearest-Neighbours                        |
 |                        -----   --------------------                        |
 |                          1               2                                 |
 |                          2               6                                 |
 +----------------------------------------------------------------------------+
 | Completeness relation is fully satisfied [Eq. (B1), PRB 56, 12847 (1997)]  |
 +----------------------------------------------------------------------------+
 |                  b_k Vectors (Ang^-1) and Weights (Ang^2)                  |
 |                  ----------------------------------------                  |
 |            No.         b_k(x)      b_k(y)      b_k(z)        w_b           |
 |            ---        --------------------------------     --------        |
 |             1         0.000000    0.000000    0.174098    16.496204        |
 |             2         0.000000    0.000000   -0.174098    16.496204        |
 |             3         0.286825    0.165598    0.000000     3.038830        |
 |             4        -0.286825   -0.165598    0.000000     3.038830        |
 |             5        -0.286825    0.165598    0.000000     3.038830        |
 |             6         0.286825   -0.165598    0.000000     3.038830        |
 |             7         0.000000   -0.331197    0.000000     3.038830        |
 |             8         0.000000    0.331197    0.000000     3.038830        |
 +----------------------------------------------------------------------------+
 |                           b_k Directions (Ang^-1)                          |
 |                           -----------------------                          |
 |            No.           x           y           z                         |
 |            ---        --------------------------------                     |
 |             1         0.000000    0.000000    0.174098                     |
 |             2         0.286825    0.165598    0.000000                     |
 |             3        -0.286825    0.165598    0.000000                     |
 |             4         0.000000   -0.331197    0.000000                     |
 +----------------------------------------------------------------------------+
  
 *============================================================================*
 |                              MEMORY ESTIMATE                               |
 |         Maximum RAM allocated during each phase of the calculation         |
 *============================================================================*
 |                            Wannierise:          274.75 Mb                  |
 *----------------------------------------------------------------------------*
  
 Starting a new Wannier90 calculation ...

 Time to get kmesh              0.048 (sec)

 Reading overlaps from wannier90.mmn    : File generated by VASP: SnS2

 Reading projections from wannier90.amn : File generated by VASP: SnS2

 Time to read overlaps         20.832 (sec)

 Writing checkpoint file wannier90.chk... done

 
 *------------------------------- WANNIERISE ---------------------------------*
 +--------------------------------------------------------------------+<-- CONV
 | Iter  Delta Spread     RMS Gradient      Spread (Ang^2)      Time  |<-- CONV
 +--------------------------------------------------------------------+<-- CONV
 
 ------------------------------------------------------------------------------
 Initial State
  WF centre and spread    1  (  2.388749,  0.676006,  1.963168 )    19.40554241
  WF centre and spread    2  (  2.015399,  0.080710,  3.326111 )    10.06913112
  WF centre and spread    3  ( -0.554317,  1.655008,  1.852452 )    17.02344053
  WF centre and spread    4  (  0.975103,  2.405086,  2.335450 )     5.69879840
  WF centre and spread    5  (  2.685872,  0.062452,  0.793797 )     2.67707017
  WF centre and spread    6  (  0.636060,  2.147148,  1.526267 )     4.82659229
  WF centre and spread    7  (  2.655492,  1.553022,  1.507513 )    11.88849689
  WF centre and spread    8  ( -0.487052,  2.872961,  0.862884 )     3.72231153
  WF centre and spread    9  (  1.215854,  0.994856,  4.677051 )    10.40544107
  WF centre and spread   10  (  1.364125,  1.459037,  3.737123 )     4.93982618
  WF centre and spread   11  (  0.842749,  0.881878,  4.584486 )    13.74354236
  WF centre and spread   12  (  0.161910,  2.699444,  1.201004 )     5.91727894
  WF centre and spread   13  (  3.135602,  0.096135,  2.884090 )    17.13327488
  WF centre and spread   14  (  2.495263,  1.186121,  4.259153 )     3.92583045
  WF centre and spread   15  (  0.258103,  2.156220,  0.726383 )     1.85292873
  WF centre and spread   16  (  1.532417,  1.654947,  1.569855 )     5.98807074
  WF centre and spread   17  (  2.797227,  1.414641,  5.944632 )    26.31040763
  WF centre and spread   18  (  0.143545,  0.642396,  0.727616 )     3.70043172
  WF centre and spread   19  ( -0.372251,  1.631285,  4.388383 )     7.09519178
  WF centre and spread   20  (  1.987791,  1.178253,  5.235082 )     2.09241301
  WF centre and spread   21  (  1.495310,  0.074087,  0.017888 )     2.63056039
  WF centre and spread   22  ( -1.284660,  1.888988,  4.517775 )     6.40908872
  WF centre and spread   23  (  2.082226,  1.151653,  0.472477 )     3.58393919
  WF centre and spread   24  (  1.644525,  2.928391,  5.501699 )     3.28576761
  WF centre and spread   25  (  0.803521,  0.726572,  3.154309 )     7.42088969
  WF centre and spread   26  (  0.758342,  0.998457,  5.407436 )    11.53087503
  WF centre and spread   27  ( -0.790763,  2.062716,  1.025828 )     2.31078389
  WF centre and spread   28  ( -0.404367,  3.000156,  4.517174 )     5.32776919
  WF centre and spread   29  (  0.033327,  1.913366,  2.098612 )     8.60723454
  WF centre and spread   30  (  1.089399,  2.304892,  5.648486 )     4.03218176
  WF centre and spread   31  (  0.152526,  1.115060,  2.450279 )    10.74637749
  WF centre and spread   32  (  0.036289,  1.339903,  1.519246 )     2.52517683
  WF centre and spread   33  (  1.283713,  1.524111,  4.618459 )    13.74001541
  WF centre and spread   34  ( -0.025885,  0.777823,  5.291590 )    10.53997167
  WF centre and spread   35  ( -0.118010,  2.733897,  1.885890 )     5.36740195
  WF centre and spread   36  (  3.825510, -0.238736,  2.185132 )    11.31297238
  WF centre and spread   37  ( -1.439794,  2.862543,  4.312450 )     6.56311723
  WF centre and spread   38  (  1.091640,  0.834447,  0.985483 )     2.40516515
  WF centre and spread   39  (  0.641705,  2.930159,  5.181963 )    10.08914193
  WF centre and spread   40  ( -0.708276,  2.543355,  2.735973 )     5.13512326
  WF centre and spread   41  (  2.696606,  1.148453,  2.901738 )    13.99400202
  WF centre and spread   42  ( -0.506330,  3.202651,  3.902152 )    10.50583928
  WF centre and spread   43  (  1.710548,  1.711753,  4.924743 )     6.76975704
  WF centre and spread   44  (  1.091876,  2.037016,  0.983103 )     3.56215933
  WF centre and spread   45  (  1.204222,  2.431617,  4.791576 )     9.74856726
  WF centre and spread   46  (  2.430290,  2.104685,  1.715659 )     6.99808867
  WF centre and spread   47  (  0.373412,  3.482033,  4.623037 )     7.69562098
  WF centre and spread   48  (  3.364609,  0.049925,  5.914754 )     1.08555844
  WF centre and spread   49  (  0.256977,  1.448617,  5.978316 )     2.78960069
  WF centre and spread   50  (  1.845829,  0.774913,  2.545240 )     6.43282904
  WF centre and spread   51  (  2.128960,  2.669457,  5.415979 )     6.62918729
  WF centre and spread   52  (  2.954835,  0.131838,  1.831633 )    17.44767858
  WF centre and spread   53  ( -0.561444,  2.038366,  1.801185 )     6.30823670
  WF centre and spread   54  (  1.415012,  2.753346,  3.798953 )     8.69473317
  WF centre and spread   55  (  2.073784,  0.507246,  4.061744 )     3.53452171
  WF centre and spread   56  (  0.435942,  1.665482,  5.122629 )    11.78093262
  WF centre and spread   57  (  0.566278,  2.211988,  3.819013 )     6.26680623
  WF centre and spread   58  ( -0.432044,  0.441463,  4.739135 )     9.55243688
  WF centre and spread   59  (  2.844254,  1.170200,  5.365155 )    23.07499463
  WF centre and spread   60  (  0.073964,  0.244620,  1.233942 )     8.01463657
  WF centre and spread   61  (  2.143244,  1.810657,  5.880090 )     5.04691763
  WF centre and spread   62  (  0.663058,  0.164506,  5.187916 )     5.24521087
  WF centre and spread   63  (  0.032860,  0.620338,  3.960508 )    10.14868948
  WF centre and spread   64  (  3.041648,  0.540843,  6.035565 )     2.81385909
  Sum of centres and spreads ( 67.892309, 96.281464,214.164415 )   506.12043830
 
      0     0.506E+03     0.0000000000      506.1204359450      23.18  <-- CONV
        O_D=      9.2635047 O_OD=    386.8243029 O_TOT=    506.1204359 <-- SPRD
 ------------------------------------------------------------------------------
 Cycle:      1
  WF centre and spread    1  (  2.336052,  0.650852,  1.916062 )    16.31362592
  WF centre and spread    2  (  1.981127,  0.064256,  3.354706 )     8.58252217
  WF centre and spread    3  ( -0.567024,  1.711660,  1.764726 )    13.27768069
  WF centre and spread    4  (  0.972270,  2.381289,  2.308324 )     5.27687701
  WF centre and spread    5  (  2.687595,  0.053254,  0.772673 )     2.34540940
  WF centre and spread    6  (  0.643365,  2.148820,  1.500419 )     4.01710981
  WF centre and spread    7  (  2.641896,  1.583638,  1.438754 )     9.48991373
  WF centre and spread    8  ( -0.504027,  2.863282,  0.866227 )     3.36058366
  WF centre and spread    9  (  1.247057,  0.984498,  4.694782 )     7.60890227
  WF centre and spread   10  (  1.381801,  1.455462,  3.752277 )     4.26426798
  WF centre and spread   11  (  0.883159,  0.868955,  4.658022 )    10.96891614
  WF centre and spread   12  (  0.166230,  2.705048,  1.168724 )     4.70524108
  WF centre and spread   13  (  3.117356,  0.111438,  2.864338 )    15.24018879
  WF centre and spread   14  (  2.481689,  1.179643,  4.263227 )     3.17980376
  WF centre and spread   15  (  0.246445,  2.145216,  0.737483 )     1.66865289
  WF centre and spread   16  (  1.501430,  1.644571,  1.539842 )     5.30858051
  WF centre and spread   17  (  2.819590,  1.411688,  5.943311 )    22.18340059
  WF centre and spread   18  (  0.150028,  0.641872,  0.705524 )     3.02058102
  WF centre and spread   19  ( -0.409553,  1.635445,  4.397366 )     6.10039236
  WF centre and spread   20  (  1.988120,  1.173317,  5.236517 )     1.73374222
  WF centre and spread   21  (  1.469926,  0.071649,  0.003403 )     2.40478777
  WF centre and spread   22  ( -1.304514,  1.871056,  4.533177 )     5.45930862
  WF centre and spread   23  (  2.086592,  1.134554,  0.470529 )     3.36677316
  WF centre and spread   24  (  1.648165,  2.937747,  5.531335 )     2.45635398
  WF centre and spread   25  (  0.809012,  0.718124,  3.179056 )     6.65397589
  WF centre and spread   26  (  0.761716,  0.977134,  5.427736 )     8.62419474
  WF centre and spread   27  ( -0.783020,  2.061335,  1.018400 )     2.07976701
  WF centre and spread   28  ( -0.410157,  3.006681,  4.553635 )     4.56881191
  WF centre and spread   29  (  0.023994,  1.925944,  2.050828 )     7.15459763
  WF centre and spread   30  (  1.089706,  2.312702,  5.677445 )     3.30088229
  WF centre and spread   31  (  0.152967,  1.128539,  2.408581 )     9.33969012
  WF centre and spread   32  (  0.047555,  1.347386,  1.499300 )     2.09975275
  WF centre and spread   33  (  1.315289,  1.544965,  4.627231 )    10.92690826
  WF centre and spread   34  ( -0.040503,  0.767976,  5.347585 )     7.44545443
  WF centre and spread   35  ( -0.123639,  2.715432,  1.874024 )     4.53940470
  WF centre and spread   36  (  3.875661, -0.249826,  2.127706 )     9.66759466
  WF centre and spread   37  ( -1.430952,  2.858544,  4.353680 )     5.75437162
  WF centre and spread   38  (  1.078958,  0.817934,  0.964034 )     2.29189190
  WF centre and spread   39  (  0.637764,  2.951335,  5.211722 )     7.92059568
  WF centre and spread   40  ( -0.715567,  2.517429,  2.724521 )     4.75550694
  WF centre and spread   41  (  2.677973,  1.163214,  2.986561 )    11.25870000
  WF centre and spread   42  ( -0.539348,  3.204152,  4.025006 )     8.60384391
  WF centre and spread   43  (  1.717447,  1.690837,  4.933481 )     5.61646405
  WF centre and spread   44  (  1.084592,  2.058262,  0.954965 )     3.09159228
  WF centre and spread   45  (  1.198170,  2.451318,  4.851840 )     8.34491468
  WF centre and spread   46  (  2.436077,  2.097851,  1.695912 )     6.17334406
  WF centre and spread   47  (  0.356101,  3.522840,  4.635316 )     5.83555812
  WF centre and spread   48  (  3.373112,  0.050251,  5.917691 )     0.96906513
  WF centre and spread   49  (  0.258158,  1.438797,  5.987140 )     2.53581031
  WF centre and spread   50  (  1.832234,  0.789480,  2.535231 )     5.70784007
  WF centre and spread   51  (  2.122674,  2.679091,  5.436937 )     4.94261472
  WF centre and spread   52  (  2.956129,  0.107592,  1.785058 )    14.88373329
  WF centre and spread   53  ( -0.577061,  2.040893,  1.770751 )     5.08669758
  WF centre and spread   54  (  1.419201,  2.717373,  3.828471 )     7.64452764
  WF centre and spread   55  (  2.066920,  0.519498,  4.070879 )     2.90866871
  WF centre and spread   56  (  0.442832,  1.652605,  5.155767 )     9.47292132
  WF centre and spread   57  (  0.548127,  2.200067,  3.807903 )     5.62837469
  WF centre and spread   58  ( -0.451633,  0.405916,  4.823757 )     7.56846193
  WF centre and spread   59  (  2.878262,  1.156055,  5.270242 )    19.72669818
  WF centre and spread   60  (  0.104608,  0.248317,  1.189698 )     6.30135519
  WF centre and spread   61  (  2.151940,  1.813900,  5.900896 )     4.08208058
  WF centre and spread   62  (  0.651221,  0.162898,  5.201147 )     4.10384314
  WF centre and spread   63  ( -0.007162,  0.609675,  4.025216 )     8.65895101
  WF centre and spread   64  (  3.061110,  0.523084,  6.036392 )     2.37970113
  Sum of centres and spreads ( 67.715243, 96.134810,214.293487 )   420.98277773
 
      1    -0.851E+02    10.0481315258      420.9827753978      37.17  <-- CONV
        O_D=     11.3809112 O_OD=    299.5692359 O_TOT=    420.9827754 <-- SPRD
 Delta: O_D=  0.2117406E+01 O_OD= -0.8725507E+02 O_TOT= -0.8513766E+02 <-- DLTA
 ------------------------------------------------------------------------------
 Cycle:      2
  WF centre and spread    1  (  2.309786,  0.643442,  1.851536 )    14.82055028
  WF centre and spread    2  (  1.951773,  0.052423,  3.367579 )     8.16862830
  WF centre and spread    3  ( -0.575550,  1.756479,  1.682517 )    11.82801475
  WF centre and spread    4  (  0.970600,  2.364317,  2.289041 )     5.19382675
  WF centre and spread    5  (  2.690868,  0.046568,  0.760692 )     2.18477630
  WF centre and spread    6  (  0.648548,  2.149721,  1.487322 )     3.67904422
  WF centre and spread    7  (  2.631742,  1.598824,  1.400124 )     8.70104371
  WF centre and spread    8  ( -0.517309,  2.856076,  0.869305 )     3.22796133
  WF centre and spread    9  (  1.269496,  0.973729,  4.714487 )     6.61029065
  WF centre and spread   10  (  1.391568,  1.454486,  3.765369 )     4.06889072
  WF centre and spread   11  (  0.907762,  0.860740,  4.708656 )     9.90294834
  WF centre and spread   12  (  0.169975,  2.709365,  1.156022 )     4.20382709
  WF centre and spread   13  (  3.096487,  0.117496,  2.840650 )    14.77814697
  WF centre and spread   14  (  2.472722,  1.176362,  4.268350 )     2.84558949
  WF centre and spread   15  (  0.237847,  2.135930,  0.743359 )     1.58583814
  WF centre and spread   16  (  1.483024,  1.638622,  1.522296 )     5.15291845
  WF centre and spread   17  (  2.822125,  1.389669,  5.937831 )    16.83363198
  WF centre and spread   18  (  0.149930,  0.640266,  0.697211 )     2.76790073
  WF centre and spread   19  ( -0.432658,  1.637577,  4.405131 )     5.73787683
  WF centre and spread   20  (  1.988445,  1.169499,  5.236414 )     1.59464206
  WF centre and spread   21  (  1.447993,  0.068805, -0.002551 )     2.33949439
  WF centre and spread   22  ( -1.319724,  1.859798,  4.546087 )     5.05220099
  WF centre and spread   23  (  2.090092,  1.122069,  0.466287 )     3.32810116
  WF centre and spread   24  (  1.655184,  2.945520,  5.548990 )     2.04211030
  WF centre and spread   25  (  0.808189,  0.715461,  3.187235 )     6.52173860
  WF centre and spread   26  (  0.761360,  0.962806,  5.448180 )     7.44344391
  WF centre and spread   27  ( -0.777226,  2.059665,  1.013793 )     1.98287242
  WF centre and spread   28  ( -0.414629,  3.008749,  4.577291 )     4.30342250
  WF centre and spread   29  (  0.022962,  1.933716,  2.024591 )     6.63680010
  WF centre and spread   30  (  1.091013,  2.319975,  5.692858 )     3.00047323
  WF centre and spread   31  (  0.153148,  1.140472,  2.378738 )     8.83753314
  WF centre and spread   32  (  0.054350,  1.355480,  1.489674 )     1.91827563
  WF centre and spread   33  (  1.341570,  1.556700,  4.648922 )    10.02970190
  WF centre and spread   34  ( -0.045905,  0.753185,  5.372918 )     6.31370383
  WF centre and spread   35  ( -0.124774,  2.704848,  1.864407 )     4.22951486
  WF centre and spread   36  (  3.906355, -0.261981,  2.083118 )     9.10702532
  WF centre and spread   37  ( -1.425446,  2.858659,  4.378404 )     5.42056373
  WF centre and spread   38  (  1.069194,  0.806574,  0.946965 )     2.27472835
  WF centre and spread   39  (  0.634560,  2.970091,  5.231614 )     7.08290360
  WF centre and spread   40  ( -0.720990,  2.496724,  2.709432 )     4.68054067
  WF centre and spread   41  (  2.669145,  1.176616,  3.002981 )    10.32543772
  WF centre and spread   42  ( -0.568673,  3.213208,  4.112987 )     7.97223936
  WF centre and spread   43  (  1.719221,  1.678468,  4.938926 )     5.19648976
  WF centre and spread   44  (  1.082185,  2.074525,  0.940374 )     2.88927071
  WF centre and spread   45  (  1.193297,  2.469655,  4.887269 )     7.79545618
  WF centre and spread   46  (  2.439325,  2.095739,  1.677550 )     5.92871254
  WF centre and spread   47  (  0.343549,  3.550941,  4.643621 )     5.10387154
  WF centre and spread   48  (  3.379926,  0.051264,  5.920383 )     0.89358298
  WF centre and spread   49  (  0.258684,  1.431220,  5.992096 )     2.45743276
  WF centre and spread   50  (  1.824408,  0.798979,  2.528507 )     5.51801588
  WF centre and spread   51  (  2.120074,  2.689832,  5.455037 )     4.25004799
  WF centre and spread   52  (  2.950463,  0.093634,  1.748261 )    14.12764198
  WF centre and spread   53  ( -0.584649,  2.044150,  1.753195 )     4.61973154
  WF centre and spread   54  (  1.419846,  2.696682,  3.840985 )     7.31016628
  WF centre and spread   55  (  2.061109,  0.526566,  4.075948 )     2.63140976
  WF centre and spread   56  (  0.441992,  1.640870,  5.175286 )     8.58646501
  WF centre and spread   57  (  0.539148,  2.191592,  3.805081 )     5.40286149
  WF centre and spread   58  ( -0.457558,  0.380878,  4.866634 )     6.93531158
  WF centre and spread   59  (  2.866985,  1.158214,  5.233703 )    16.65118101
  WF centre and spread   60  (  0.115723,  0.246355,  1.173212 )     5.68891114
  WF centre and spread   61  (  2.157655,  1.820858,  5.916964 )     3.66259628
  WF centre and spread   62  (  0.641720,  0.161952,  5.214112 )     3.60308930
  WF centre and spread   63  ( -0.036329,  0.610041,  4.072151 )     8.24840174
  WF centre and spread   64  (  3.075729,  0.510735,  6.035886 )     2.14788230
  Sum of centres and spreads ( 67.527433, 96.061884,214.321995 )   384.37770255
 
      2    -0.366E+02     9.9666409981      384.3777001960      50.74  <-- CONV
        O_D=      5.2292924 O_OD=    269.1157795 O_TOT=    384.3777002 <-- SPRD
 Delta: O_D= -0.6151619E+01 O_OD= -0.3045346E+02 O_TOT= -0.3660508E+02 <-- DLTA
 ------------------------------------------------------------------------------
 Cycle:      3
  WF centre and spread    1  (  2.284165,  0.650281,  1.793401 )    13.46212713
  WF centre and spread    2  (  1.922377,  0.044026,  3.375701 )     7.73933695
  WF centre and spread    3  ( -0.578289,  1.799818,  1.608308 )    10.32492466
  WF centre and spread    4  (  0.970720,  2.349486,  2.269350 )     5.11186498
  WF centre and spread    5  (  2.695946,  0.040841,  0.749230 )     2.05066943
  WF centre and spread    6  (  0.654211,  2.150443,  1.474674 )     3.35638709
  WF centre and spread    7  (  2.626450,  1.604949,  1.365578 )     7.84993840
  WF centre and spread    8  ( -0.529288,  2.848694,  0.871363 )     3.09699685
  WF centre and spread    9  (  1.288985,  0.957729,  4.733557 )     5.62287120
  WF centre and spread   10  (  1.397771,  1.454819,  3.776136 )     3.88704065
  WF centre and spread   11  (  0.924833,  0.846707,  4.748371 )     8.70874591
  WF centre and spread   12  (  0.175949,  2.712825,  1.145509 )     3.69515441
  WF centre and spread   13  (  3.078052,  0.117136,  2.829819 )    14.22397331
  WF centre and spread   14  (  2.465265,  1.173611,  4.273002 )     2.57201926
  WF centre and spread   15  (  0.229319,  2.126506,  0.749112 )     1.51464659
  WF centre and spread   16  (  1.467648,  1.632269,  1.503840 )     4.98922460
  WF centre and spread   17  (  2.826059,  1.368196,  5.944889 )    14.78424527
  WF centre and spread   18  (  0.147122,  0.639021,  0.690397 )     2.54881712
  WF centre and spread   19  ( -0.452661,  1.637879,  4.411906 )     5.38136784
  WF centre and spread   20  (  1.989281,  1.165721,  5.235978 )     1.47998750
  WF centre and spread   21  (  1.423400,  0.065331, -0.007810 )     2.27137748
  WF centre and spread   22  ( -1.335056,  1.850276,  4.557063 )     4.69203679
  WF centre and spread   23  (  2.093914,  1.108935,  0.459504 )     3.31962335
  WF centre and spread   24  (  1.665072,  2.953517,  5.564337 )     1.75437265
  WF centre and spread   25  (  0.808478,  0.712909,  3.186841 )     6.32358275
  WF centre and spread   26  (  0.761289,  0.941181,  5.471791 )     6.26136231
  WF centre and spread   27  ( -0.771760,  2.057579,  1.008985 )     1.89585629
  WF centre and spread   28  ( -0.418772,  3.009893,  4.598840 )     4.11028968
  WF centre and spread   29  (  0.024308,  1.941026,  1.997599 )     6.11487997
  WF centre and spread   30  (  1.093404,  2.327333,  5.706311 )     2.73596539
  WF centre and spread   31  (  0.154924,  1.149248,  2.345900 )     8.31205912
  WF centre and spread   32  (  0.059997,  1.365128,  1.482420 )     1.78705213
  WF centre and spread   33  (  1.364720,  1.568466,  4.661518 )     9.11919587
  WF centre and spread   34  ( -0.049296,  0.731379,  5.394301 )     5.19888801
  WF centre and spread   35  ( -0.123717,  2.694737,  1.853047 )     3.88966399
  WF centre and spread   36  (  3.935444, -0.272055,  2.040144 )     8.50543211
  WF centre and spread   37  ( -1.419900,  2.859692,  4.399513 )     5.10266554
  WF centre and spread   38  (  1.059194,  0.796839,  0.929281 )     2.28321765
  WF centre and spread   39  (  0.631878,  2.985265,  5.254919 )     6.20255684
  WF centre and spread   40  ( -0.725226,  2.476738,  2.691011 )     4.57862454
  WF centre and spread   41  (  2.667163,  1.187630,  3.014058 )     9.34257174
  WF centre and spread   42  ( -0.600716,  3.228007,  4.202560 )     7.31645912
  WF centre and spread   43  (  1.717672,  1.666613,  4.943252 )     4.79169473
  WF centre and spread   44  (  1.082711,  2.090711,  0.925847 )     2.73295524
  WF centre and spread   45  (  1.189113,  2.488049,  4.918871 )     7.20305912
  WF centre and spread   46  (  2.440631,  2.096142,  1.658596 )     5.67998349
  WF centre and spread   47  (  0.331307,  3.575170,  4.654797 )     4.40735451
  WF centre and spread   48  (  3.387041,  0.052623,  5.923054 )     0.84278090
  WF centre and spread   49  (  0.258490,  1.425168,  5.996833 )     2.38427121
  WF centre and spread   50  (  1.819850,  0.805621,  2.523343 )     5.33059016
  WF centre and spread   51  (  2.118395,  2.701144,  5.471949 )     3.68865849
  WF centre and spread   52  (  2.942486,  0.085018,  1.723846 )    13.26358974
  WF centre and spread   53  ( -0.589465,  2.048891,  1.734061 )     4.20320055
  WF centre and spread   54  (  1.418697,  2.678556,  3.849244 )     6.90643422
  WF centre and spread   55  (  2.055053,  0.532157,  4.080725 )     2.39409970
  WF centre and spread   56  (  0.435750,  1.619159,  5.199679 )     7.74974775
  WF centre and spread   57  (  0.533196,  2.183851,  3.802937 )     5.18687353
  WF centre and spread   58  ( -0.456590,  0.356877,  4.901114 )     6.20253517
  WF centre and spread   59  (  2.881213,  1.138937,  5.226993 )    14.41778047
  WF centre and spread   60  (  0.118810,  0.242905,  1.159588 )     5.07725338
  WF centre and spread   61  (  2.162149,  1.829569,  5.933002 )     3.36222896
  WF centre and spread   62  (  0.631031,  0.160632,  5.228499 )     3.20107936
  WF centre and spread   63  ( -0.062812,  0.608719,  4.111957 )     7.67608421
  WF centre and spread   64  (  3.089810,  0.498686,  6.034525 )     1.96323583
  Sum of centres and spreads ( 67.387197, 95.945210,214.364965 )   352.18356320
 
      3    -0.322E+02     8.0743401261      352.1835608518      64.32  <-- CONV
        O_D=      4.9896296 O_OD=    237.1613029 O_TOT=    352.1835609 <-- SPRD
 Delta: O_D= -0.2396628E+00 O_OD= -0.3195448E+02 O_TOT= -0.3219414E+02 <-- DLTA
 ------------------------------------------------------------------------------
 Cycle:      4
  WF centre and spread    1  (  2.262408,  0.653339,  1.740333 )    12.85984198
  WF centre and spread    2  (  1.900206,  0.040086,  3.369626 )     7.52148164
  WF centre and spread    3  ( -0.574543,  1.839537,  1.554443 )     9.43858111
  WF centre and spread    4  (  0.972209,  2.339730,  2.252170 )     5.09101719
  WF centre and spread    5  (  2.702285,  0.036387,  0.739106 )     1.96148471
  WF centre and spread    6  (  0.659336,  2.151243,  1.466333 )     3.16399727
  WF centre and spread    7  (  2.622599,  1.604262,  1.338932 )     7.40426055
  WF centre and spread    8  ( -0.538936,  2.841421,  0.872667 )     3.03732995
  WF centre and spread    9  (  1.303131,  0.940015,  4.751186 )     5.05403510
  WF centre and spread   10  (  1.400822,  1.455198,  3.785699 )     3.78907486
  WF centre and spread   11  (  0.937815,  0.831011,  4.774339 )     8.02258878
  WF centre and spread   12  (  0.182303,  2.715129,  1.139921 )     3.39849981
  WF centre and spread   13  (  3.062506,  0.114780,  2.828756 )    14.05044814
  WF centre and spread   14  (  2.459233,  1.171279,  4.276031 )     2.38621300
  WF centre and spread   15  (  0.221363,  2.117982,  0.754863 )     1.47274833
  WF centre and spread   16  (  1.454713,  1.625745,  1.488339 )     4.95129629
  WF centre and spread   17  (  2.827427,  1.350839,  5.953238 )    12.73564535
  WF centre and spread   18  (  0.142764,  0.638568,  0.685898 )     2.45418689
  WF centre and spread   19  ( -0.467104,  1.637405,  4.417526 )     5.19020932
  WF centre and spread   20  (  1.990323,  1.162527,  5.234784 )     1.41309795
  WF centre and spread   21  (  1.399088,  0.062039, -0.011937 )     2.24127855
  WF centre and spread   22  ( -1.348676,  1.842878,  4.565252 )     4.47355322
  WF centre and spread   23  (  2.096805,  1.096066,  0.451547 )     3.35532886
  WF centre and spread   24  (  1.675736,  2.960585,  5.577473 )     1.57979688
  WF centre and spread   25  (  0.810277,  0.710191,  3.181246 )     6.23862108
  WF centre and spread   26  (  0.756711,  0.917061,  5.493618 )     5.60169656
  WF centre and spread   27  ( -0.767053,  2.055374,  1.004831 )     1.84290053
  WF centre and spread   28  ( -0.421415,  3.010148,  4.615346 )     4.01359961
  WF centre and spread   29  (  0.027810,  1.947109,  1.973647 )     5.78021806
  WF centre and spread   30  (  1.096710,  2.333843,  5.717053 )     2.58291694
  WF centre and spread   31  (  0.156791,  1.151540,  2.316014 )     7.99709593
  WF centre and spread   32  (  0.064107,  1.374911,  1.477919 )     1.70867974
  WF centre and spread   33  (  1.378667,  1.576585,  4.672548 )     8.60660767
  WF centre and spread   34  ( -0.051055,  0.709979,  5.413717 )     4.60025695
  WF centre and spread   35  ( -0.122053,  2.686259,  1.844029 )     3.66730657
  WF centre and spread   36  (  3.960381, -0.281042,  2.007043 )     8.19231724
  WF centre and spread   37  ( -1.416243,  2.860824,  4.416046 )     4.91474481
  WF centre and spread   38  (  1.049804,  0.789155,  0.912507 )     2.30941044
  WF centre and spread   39  (  0.630459,  2.998715,  5.272971 )     5.70799774
  WF centre and spread   40  ( -0.727932,  2.461055,  2.674567 )     4.54203016
  WF centre and spread   41  (  2.666312,  1.197826,  3.016763 )     8.76749279
  WF centre and spread   42  ( -0.632056,  3.243781,  4.273714 )     6.99113785
  WF centre and spread   43  (  1.712961,  1.657657,  4.944728 )     4.56771054
  WF centre and spread   44  (  1.085371,  2.104780,  0.913083 )     2.63576505
  WF centre and spread   45  (  1.186431,  2.504652,  4.943043 )     6.84062269
  WF centre and spread   46  (  2.439784,  2.098020,  1.643201 )     5.59264523
  WF centre and spread   47  (  0.320568,  3.594601,  4.665620 )     3.98565675
  WF centre and spread   48  (  3.393938,  0.053923,  5.925677 )     0.79998700
  WF centre and spread   49  (  0.257510,  1.420251,  6.001195 )     2.37247882
  WF centre and spread   50  (  1.814888,  0.809450,  2.521387 )     5.24411019
  WF centre and spread   51  (  2.117432,  2.709715,  5.485194 )     3.36805409
  WF centre and spread   52  (  2.934189,  0.081043,  1.708698 )    12.86068420
  WF centre and spread   53  ( -0.590675,  2.054473,  1.719534 )     3.96491626
  WF centre and spread   54  (  1.416201,  2.664890,  3.855173 )     6.72817770
  WF centre and spread   55  (  2.049558,  0.536301,  4.084696 )     2.22811846
  WF centre and spread   56  (  0.427073,  1.594947,  5.221420 )     7.26634755
  WF centre and spread   57  (  0.530054,  2.177522,  3.801359 )     5.08331069
  WF centre and spread   58  ( -0.451392,  0.338368,  4.925886 )     5.85120328
  WF centre and spread   59  (  2.892086,  1.125657,  5.236720 )    12.91663848
  WF centre and spread   60  (  0.116858,  0.238863,  1.149788 )     4.77903845
  WF centre and spread   61  (  2.163930,  1.838956,  5.945109 )     3.19879152
  WF centre and spread   62  (  0.620838,  0.158794,  5.240921 )     2.95742153
  WF centre and spread   63  ( -0.081775,  0.607720,  4.143862 )     7.36774005
  WF centre and spread   64  (  3.101834,  0.487881,  6.033573 )     1.83685958
  Sum of centres and spreads ( 67.261690, 95.829828,214.399970 )   333.55730448
 
      4    -0.186E+02     6.3528987412      333.5573021277      77.92  <-- CONV
        O_D=      3.7019708 O_OD=    219.8227030 O_TOT=    333.5573021 <-- SPRD
 Delta: O_D= -0.1287659E+01 O_OD= -0.1733860E+02 O_TOT= -0.1862626E+02 <-- DLTA
 ------------------------------------------------------------------------------
 Cycle:      5
  WF centre and spread    1  (  2.240248,  0.655489,  1.692629 )    12.15328125
  WF centre and spread    2  (  1.883588,  0.038887,  3.356184 )     7.32058390
  WF centre and spread    3  ( -0.566911,  1.879101,  1.509791 )     8.70133360
  WF centre and spread    4  (  0.974672,  2.332996,  2.237591 )     5.09729516
  WF centre and spread    5  (  2.710413,  0.032294,  0.728276 )     1.89048784
  WF centre and spread    6  (  0.664377,  2.151855,  1.459562 )     3.00631749
  WF centre and spread    7  (  2.620105,  1.601300,  1.318127 )     7.01526690
  WF centre and spread    8  ( -0.547699,  2.833566,  0.874168 )     3.00756917
  WF centre and spread    9  (  1.314268,  0.924460,  4.769404 )     4.57623848
  WF centre and spread   10  (  1.402990,  1.455390,  3.795893 )     3.70612038
  WF centre and spread   11  (  0.950128,  0.813838,  4.793712 )     7.45581583
  WF centre and spread   12  (  0.188664,  2.716759,  1.135306 )     3.16327858
  WF centre and spread   13  (  3.050208,  0.111289,  2.831841 )    13.97837942
  WF centre and spread   14  (  2.453145,  1.168838,  4.279151 )     2.23326562
  WF centre and spread   15  (  0.213030,  2.109592,  0.761274 )     1.44334045
  WF centre and spread   16  (  1.441582,  1.617777,  1.473407 )     4.95108201
  WF centre and spread   17  (  2.825706,  1.332084,  5.959241 )    11.87690164
  WF centre and spread   18  (  0.137666,  0.638899,  0.681909 )     2.39560939
  WF centre and spread   19  ( -0.480334,  1.636072,  4.423658 )     5.02746573
  WF centre and spread   20  (  1.991666,  1.159474,  5.233026 )     1.36113553
  WF centre and spread   21  (  1.373198,  0.059105, -0.015012 )     2.22527478
  WF centre and spread   22  ( -1.362499,  1.835280,  4.573745 )     4.27684035
  WF centre and spread   23  (  2.099503,  1.082808,  0.443883 )     3.41972172
  WF centre and spread   24  (  1.687235,  2.967552,  5.590832 )     1.44612145
  WF centre and spread   25  (  0.812308,  0.707164,  3.177091 )     6.17780886
  WF centre and spread   26  (  0.748184,  0.890064,  5.515084 )     5.03554557
  WF centre and spread   27  ( -0.762596,  2.052988,  1.001225 )     1.80877716
  WF centre and spread   28  ( -0.423086,  3.009871,  4.629207 )     3.95394983
  WF centre and spread   29  (  0.033916,  1.952840,  1.951028 )     5.47847531
  WF centre and spread   30  (  1.100546,  2.339924,  5.726372 )     2.46541978
  WF centre and spread   31  (  0.157901,  1.150566,  2.292947 )     7.74287903
  WF centre and spread   32  (  0.067583,  1.385200,  1.474416 )     1.64786576
  WF centre and spread   33  (  1.387242,  1.585535,  4.688470 )     8.18906672
  WF centre and spread   34  ( -0.052596,  0.689482,  5.434590 )     4.05801633
  WF centre and spread   35  ( -0.120326,  2.678101,  1.836707 )     3.47733008
  WF centre and spread   36  (  3.985352, -0.289587,  1.975995 )     7.95000647
  WF centre and spread   37  ( -1.413667,  2.861958,  4.434134 )     4.75391102
  WF centre and spread   38  (  1.040128,  0.782245,  0.894172 )     2.35790266
  WF centre and spread   39  (  0.629118,  3.011463,  5.288911 )     5.29137037
  WF centre and spread   40  ( -0.730212,  2.447249,  2.660883 )     4.51593859
  WF centre and spread   41  (  2.663186,  1.209140,  3.013706 )     8.27632115
  WF centre and spread   42  ( -0.664563,  3.258893,  4.340222 )     6.70223433
  WF centre and spread   43  (  1.706615,  1.649419,  4.946002 )     4.38675098
  WF centre and spread   44  (  1.090096,  2.118014,  0.900602 )     2.56736528
  WF centre and spread   45  (  1.184099,  2.521578,  4.965446 )     6.50798764
  WF centre and spread   46  (  2.437545,  2.100666,  1.630271 )     5.53571534
  WF centre and spread   47  (  0.309459,  3.612418,  4.676767 )     3.62495822
  WF centre and spread   48  (  3.401156,  0.055128,  5.928545 )     0.77097413
  WF centre and spread   49  (  0.256235,  1.415701,  6.005711 )     2.39242568
  WF centre and spread   50  (  1.806958,  0.812303,  2.522616 )     5.17634138
  WF centre and spread   51  (  2.115995,  2.717213,  5.498337 )     3.10793912
  WF centre and spread   52  (  2.924700,  0.078796,  1.694409 )    12.50781836
  WF centre and spread   53  ( -0.589747,  2.060310,  1.706810 )     3.75700795
  WF centre and spread   54  (  1.413960,  2.651505,  3.862400 )     6.58030784
  WF centre and spread   55  (  2.043764,  0.539867,  4.089058 )     2.09103286
  WF centre and spread   56  (  0.416924,  1.568567,  5.242530 )     6.88242866
  WF centre and spread   57  (  0.527624,  2.172315,  3.801022 )     4.98625874
  WF centre and spread   58  ( -0.443728,  0.322311,  4.950730 )     5.52515202
  WF centre and spread   59  (  2.901323,  1.108514,  5.235974 )    11.90519572
  WF centre and spread   60  (  0.113824,  0.234289,  1.140780 )     4.53892486
  WF centre and spread   61  (  2.164421,  1.849996,  5.955773 )     3.08445915
  WF centre and spread   62  (  0.609773,  0.156305,  5.252771 )     2.76237070
  WF centre and spread   63  ( -0.097243,  0.605991,  4.173551 )     7.11067207
  WF centre and spread   64  (  3.113440,  0.476987,  6.033158 )     1.73471386
  Sum of centres and spreads ( 67.130561, 95.705991,214.456019 )   319.14834623
 
      5    -0.144E+02     5.5689476192      319.1483438662      91.54  <-- CONV
        O_D=      3.5233552 O_OD=    205.5923604 O_TOT=    319.1483439 <-- SPRD
 Delta: O_D= -0.1786156E+00 O_OD= -0.1423034E+02 O_TOT= -0.1440896E+02 <-- DLTA
 ------------------------------------------------------------------------------
 Cycle:      6
  WF centre and spread    1  (  2.216329,  0.654600,  1.657282 )    11.62490473
  WF centre and spread    2  (  1.872913,  0.040095,  3.339920 )     7.18802452
  WF centre and spread    3  ( -0.557269,  1.916033,  1.471347 )     8.14381522
  WF centre and spread    4  (  0.978211,  2.329618,  2.227302 )     5.12511260
  WF centre and spread    5  (  2.719994,  0.028315,  0.717327 )     1.84517448
  WF centre and spread    6  (  0.668863,  2.152395,  1.454278 )     2.88291861
  WF centre and spread    7  (  2.618847,  1.597151,  1.298466 )     6.73079069
  WF centre and spread    8  ( -0.555379,  2.825316,  0.876545 )     3.00101828
  WF centre and spread    9  (  1.322715,  0.912939,  4.783045 )     4.22197291
  WF centre and spread   10  (  1.405088,  1.455832,  3.804362 )     3.65259133
  WF centre and spread   11  (  0.962397,  0.798070,  4.804832 )     7.04415901
  WF centre and spread   12  (  0.194701,  2.717783,  1.131999 )     2.99557824
  WF centre and spread   13  (  3.041819,  0.107849,  2.833902 )    14.01195475
  WF centre and spread   14  (  2.447094,  1.166401,  4.282231 )     2.11416917
  WF centre and spread   15  (  0.204652,  2.101655,  0.768340 )     1.42283753
  WF centre and spread   16  (  1.429602,  1.608501,  1.459645 )     4.98070434
  WF centre and spread   17  (  2.824438,  1.315734,  5.968300 )    10.76231795
  WF centre and spread   18  (  0.132419,  0.639732,  0.678409 )     2.37039839
  WF centre and spread   19  ( -0.492818,  1.635058,  4.429236 )     4.90666821
  WF centre and spread   20  (  1.993324,  1.156918,  5.230862 )     1.32218907
  WF centre and spread   21  (  1.347043,  0.056639, -0.017299 )     2.22237631
  WF centre and spread   22  ( -1.375960,  1.827493,  4.581337 )     4.12286076
  WF centre and spread   23  (  2.102000,  1.070163,  0.437398 )     3.50519953
  WF centre and spread   24  (  1.698821,  2.974037,  5.603761 )     1.36119148
  WF centre and spread   25  (  0.813200,  0.704552,  3.175738 )     6.13595680
  WF centre and spread   26  (  0.736187,  0.863332,  5.536422 )     4.66777251
  WF centre and spread   27  ( -0.758532,  2.050340,  0.998840 )     1.78850385
  WF centre and spread   28  ( -0.423807,  3.009320,  4.639520 )     3.93699067
  WF centre and spread   29  (  0.041553,  1.958557,  1.931421 )     5.24489153
  WF centre and spread   30  (  1.104345,  2.345291,  5.734066 )     2.38944498
  WF centre and spread   31  (  0.157816,  1.147781,  2.279251 )     7.54906746
  WF centre and spread   32  (  0.070366,  1.395242,  1.472000 )     1.60082051
  WF centre and spread   33  (  1.391335,  1.594537,  4.701288 )     7.87714200
  WF centre and spread   34  ( -0.054381,  0.670088,  5.452945 )     3.69904540
  WF centre and spread   35  ( -0.118657,  2.670395,  1.831484 )     3.31334091
  WF centre and spread   36  (  4.009018, -0.296712,  1.948357 )     7.80357875
  WF centre and spread   37  ( -1.411976,  2.863650,  4.453444 )     4.64176417
  WF centre and spread   38  (  1.030711,  0.776046,  0.875562 )     2.42129173
  WF centre and spread   39  (  0.628214,  3.022965,  5.302242 )     4.99209133
  WF centre and spread   40  ( -0.732425,  2.435737,  2.651621 )     4.49110952
  WF centre and spread   41  (  2.657691,  1.220830,  3.011324 )     7.88142103
  WF centre and spread   42  ( -0.695981,  3.272425,  4.399866 )     6.53686217
  WF centre and spread   43  (  1.698853,  1.641825,  4.946752 )     4.26380253
  WF centre and spread   44  (  1.096520,  2.129767,  0.889452 )     2.52455721
  WF centre and spread   45  (  1.181931,  2.537191,  4.987614 )     6.22978514
  WF centre and spread   46  (  2.434509,  2.103290,  1.620508 )     5.51493568
  WF centre and spread   47  (  0.298407,  3.628424,  4.686797 )     3.34306277
  WF centre and spread   48  (  3.408547,  0.056130,  5.931488 )     0.74782748
  WF centre and spread   49  (  0.254956,  1.411770,  6.010062 )     2.43110818
  WF centre and spread   50  (  1.796751,  0.814887,  2.526527 )     5.12873778
  WF centre and spread   51  (  2.115167,  2.723576,  5.509083 )     2.94104458
  WF centre and spread   52  (  2.917540,  0.077604,  1.680392 )    12.28365065
  WF centre and spread   53  ( -0.587612,  2.065851,  1.696123 )     3.59363724
  WF centre and spread   54  (  1.412099,  2.638256,  3.867975 )     6.47878218
  WF centre and spread   55  (  2.037838,  0.542949,  4.093029 )     1.97801991
  WF centre and spread   56  (  0.406392,  1.542782,  5.261231 )     6.63280726
  WF centre and spread   57  (  0.525598,  2.168296,  3.801138 )     4.92844962
  WF centre and spread   58  ( -0.435672,  0.308890,  4.975326 )     5.28922084
  WF centre and spread   59  (  2.910157,  1.091683,  5.233677 )    11.04111584
  WF centre and spread   60  (  0.111378,  0.229628,  1.132554 )     4.39396256
  WF centre and spread   61  (  2.163807,  1.862659,  5.965687 )     3.01484784
  WF centre and spread   62  (  0.598474,  0.153444,  5.263489 )     2.63751310
  WF centre and spread   63  ( -0.110962,  0.604260,  4.198535 )     6.92351271
  WF centre and spread   64  (  3.124420,  0.466237,  6.033219 )     1.66459832
  Sum of centres and spreads ( 67.003618, 95.592104,214.528878 )   308.51500284
 
      6    -0.106E+02     4.8161904393      308.5150004772     105.16  <-- CONV
        O_D=      2.9594068 O_OD=    195.5229654 O_TOT=    308.5150005 <-- SPRD
 Delta: O_D= -0.5639484E+00 O_OD= -0.1006940E+02 O_TOT= -0.1063334E+02 <-- DLTA
 ------------------------------------------------------------------------------
 Cycle:      7
  WF centre and spread    1  (  2.205508,  0.653085,  1.656449 )    11.19814440
  WF centre and spread    2  (  1.872958,  0.042694,  3.332420 )     6.97197143
  WF centre and spread    3  ( -0.556986,  1.928644,  1.459159 )     7.71874354
  WF centre and spread    4  (  0.980271,  2.331071,  2.226475 )     5.02646389
  WF centre and spread    5  (  2.723879,  0.026847,  0.713101 )     1.77622498
  WF centre and spread    6  (  0.670222,  2.152606,  1.453332 )     2.77994956
  WF centre and spread    7  (  2.619385,  1.595395,  1.292192 )     6.50166719
  WF centre and spread    8  ( -0.557421,  2.822489,  0.878043 )     2.95273716
  WF centre and spread    9  (  1.325153,  0.910102,  4.784395 )     3.98819163
  WF centre and spread   10  (  1.405880,  1.456872,  3.806333 )     3.54542375
  WF centre and spread   11  (  0.965823,  0.791972,  4.803436 )     6.71182729
  WF centre and spread   12  (  0.196475,  2.717702,  1.131908 )     2.88512862
  WF centre and spread   13  (  3.043973,  0.107932,  2.829907 )    13.71716557
  WF centre and spread   14  (  2.445292,  1.165563,  4.283138 )     2.03954262
  WF centre and spread   15  (  0.202061,  2.099413,  0.771395 )     1.38411842
  WF centre and spread   16  (  1.426195,  1.603862,  1.455971 )     4.89382460
  WF centre and spread   17  (  2.824289,  1.310321,  5.971404 )    10.22275177
  WF centre and spread   18  (  0.130640,  0.640553,  0.677349 )     2.30701062
  WF centre and spread   19  ( -0.496369,  1.635112,  4.430595 )     4.78031734
  WF centre and spread   20  (  1.994301,  1.156425,  5.230053 )     1.28621715
  WF centre and spread   21  (  1.338335,  0.056001, -0.017658 )     2.16980512
  WF centre and spread   22  ( -1.380565,  1.824836,  4.583117 )     3.99481029
  WF centre and spread   23  (  2.102379,  1.066961,  0.435738 )     3.44836978
  WF centre and spread   24  (  1.702647,  2.976117,  5.609393 )     1.25630432
  WF centre and spread   25  (  0.811919,  0.703042,  3.178439 )     6.00133145
  WF centre and spread   26  (  0.730651,  0.853925,  5.545427 )     4.39526186
  WF centre and spread   27  ( -0.757598,  2.049120,  0.998986 )     1.75380476
  WF centre and spread   28  ( -0.424157,  3.008033,  4.641528 )     3.84192286
  WF centre and spread   29  (  0.043586,  1.960787,  1.926424 )     5.06005806
  WF centre and spread   30  (  1.105565,  2.346674,  5.736477 )     2.30923650
  WF centre and spread   31  (  0.157272,  1.145308,  2.281573 )     7.30882556
  WF centre and spread   32  (  0.070913,  1.398086,  1.471967 )     1.55058918
  WF centre and spread   33  (  1.390523,  1.596618,  4.701698 )     7.59353318
  WF centre and spread   34  ( -0.055358,  0.662520,  5.459231 )     3.41111576
  WF centre and spread   35  ( -0.118347,  2.667845,  1.831348 )     3.20216077
  WF centre and spread   36  (  4.016179, -0.297580,  1.940184 )     7.55957751
  WF centre and spread   37  ( -1.412289,  2.865611,  4.462334 )     4.48088171
  WF centre and spread   38  (  1.027143,  0.773842,  0.869236 )     2.38437566
  WF centre and spread   39  (  0.627922,  3.025231,  5.305474 )     4.79636091
  WF centre and spread   40  ( -0.732937,  2.433058,  2.651479 )     4.38871742
  WF centre and spread   41  (  2.653435,  1.223595,  3.010852 )     7.56335818
  WF centre and spread   42  ( -0.707635,  3.274106,  4.420258 )     6.27698064
  WF centre and spread   43  (  1.695031,  1.639681,  4.945191 )     4.15171162
  WF centre and spread   44  (  1.100054,  2.132420,  0.886147 )     2.45956338
  WF centre and spread   45  (  1.181219,  2.540598,  4.996452 )     5.96415481
  WF centre and spread   46  (  2.431776,  2.103232,  1.621168 )     5.41509992
  WF centre and spread   47  (  0.294219,  3.633045,  4.689151 )     3.18930943
  WF centre and spread   48  (  3.411196,  0.056262,  5.932541 )     0.72347747
  WF centre and spread   49  (  0.254630,  1.411648,  6.011321 )     2.39440104
  WF centre and spread   50  (  1.791715,  0.815260,  2.528887 )     5.00363962
  WF centre and spread   51  (  2.114914,  2.724837,  5.512033 )     2.78877103
  WF centre and spread   52  (  2.916883,  0.077546,  1.683915 )    12.02938040
  WF centre and spread   53  ( -0.587294,  2.066675,  1.693464 )     3.47103748
  WF centre and spread   54  (  1.411832,  2.633306,  3.867085 )     6.30464600
  WF centre and spread   55  (  2.035617,  0.543892,  4.093883 )     1.90391069
  WF centre and spread   56  (  0.402982,  1.534584,  5.266913 )     6.38437274
  WF centre and spread   57  (  0.524681,  2.167158,  3.800033 )     4.80054106
  WF centre and spread   58  ( -0.433614,  0.304603,  4.986150 )     5.04938729
  WF centre and spread   59  (  2.912086,  1.083304,  5.232673 )    10.54973349
  WF centre and spread   60  (  0.111399,  0.228355,  1.129793 )     4.22374783
  WF centre and spread   61  (  2.163002,  1.867272,  5.968558 )     2.89295866
  WF centre and spread   62  (  0.594027,  0.152334,  5.266978 )     2.51318553
  WF centre and spread   63  ( -0.115981,  0.603046,  4.205202 )     6.68186690
  WF centre and spread   64  (  3.128018,  0.462107,  6.033492 )     1.57906739
  Sum of centres and spreads ( 66.949507, 95.543559,214.581592 )   297.90876681
 
      7    -0.106E+02     4.3215114917      297.9087644478     118.70  <-- CONV
        O_D=      2.6942270 O_OD=    185.1819092 O_TOT=    297.9087644 <-- SPRD
 Delta: O_D= -0.2651798E+00 O_OD= -0.1034106E+02 O_TOT= -0.1060624E+02 <-- DLTA
 ------------------------------------------------------------------------------
 Cycle:      8
  WF centre and spread    1  (  2.185006,  0.652852,  1.631024 )    10.85855497
  WF centre and spread    2  (  1.875873,  0.047219,  3.311534 )     6.83493549
  WF centre and spread    3  ( -0.555232,  1.954983,  1.436728 )     7.35676088
  WF centre and spread    4  (  0.984457,  2.334679,  2.225427 )     4.99858668
  WF centre and spread    5  (  2.732972,  0.023713,  0.704287 )     1.73767126
  WF centre and spread    6  (  0.672822,  2.152523,  1.452662 )     2.69842324
  WF centre and spread    7  (  2.619337,  1.590216,  1.283715 )     6.36173605
  WF centre and spread    8  ( -0.561670,  2.816363,  0.881539 )     2.95684128
  WF centre and spread    9  (  1.329938,  0.905077,  4.787474 )     3.79197405
  WF centre and spread   10  (  1.407638,  1.459920,  3.809822 )     3.47640779
  WF centre and spread   11  (  0.974068,  0.781448,  4.796892 )     6.46741991
  WF centre and spread   12  (  0.200012,  2.717477,  1.133071 )     2.81396098
  WF centre and spread   13  (  3.047513,  0.108469,  2.820296 )    13.66083273
  WF centre and spread   14  (  2.441396,  1.163798,  4.284098 )     1.97189669
  WF centre and spread   15  (  0.196264,  2.094455,  0.777752 )     1.36003392
  WF centre and spread   16  (  1.418586,  1.593049,  1.449447 )     4.90187439
  WF centre and spread   17  (  2.820088,  1.297736,  5.980240 )    10.06345063
  WF centre and spread   18  (  0.126288,  0.642105,  0.675951 )     2.29524703
  WF centre and spread   19  ( -0.503654,  1.635253,  4.431440 )     4.70493897
  WF centre and spread   20  (  1.996322,  1.155258,  5.227745 )     1.26270443
  WF centre and spread   21  (  1.319111,  0.054782, -0.017980 )     2.15149767
  WF centre and spread   22  ( -1.390482,  1.818734,  4.585332 )     3.88921278
  WF centre and spread   23  (  2.103393,  1.060207,  0.433005 )     3.48632596
  WF centre and spread   24  (  1.711305,  2.980895,  5.620323 )     1.18990444
  WF centre and spread   25  (  0.809591,  0.700756,  3.182987 )     5.94598097
  WF centre and spread   26  (  0.717474,  0.833557,  5.562270 )     4.21271173
  WF centre and spread   27  ( -0.755356,  2.046349,  0.999549 )     1.74697950
  WF centre and spread   28  ( -0.423895,  3.004969,  4.642894 )     3.81816564
  WF centre and spread   29  (  0.048170,  1.965858,  1.917740 )     4.90115231
  WF centre and spread   30  (  1.108021,  2.349856,  5.740955 )     2.26720017
  WF centre and spread   31  (  0.156765,  1.139947,  2.287305 )     7.10971680
  WF centre and spread   32  (  0.071766,  1.404605,  1.472541 )     1.51467274
  WF centre and spread   33  (  1.387374,  1.602167,  4.702947 )     7.40347034
  WF centre and spread   34  ( -0.057191,  0.648256,  5.470669 )     3.22257204
  WF centre and spread   35  ( -0.117325,  2.662513,  1.831241 )     3.08916744
  WF centre and spread   36  (  4.031542, -0.299510,  1.926647 )     7.44891762
  WF centre and spread   37  ( -1.413200,  2.870153,  4.479668 )     4.38411873
  WF centre and spread   38  (  1.019088,  0.769174,  0.855664 )     2.40561603
  WF centre and spread   39  (  0.628252,  3.029147,  5.312718 )     4.64164292
  WF centre and spread   40  ( -0.733493,  2.427459,  2.651312 )     4.32410226
  WF centre and spread   41  (  2.644996,  1.228657,  3.005736 )     7.26201324
  WF centre and spread   42  ( -0.731013,  3.277773,  4.455884 )     6.19781767
  WF centre and spread   43  (  1.686243,  1.635408,  4.941642 )     4.09111663
  WF centre and spread   44  (  1.108143,  2.137999,  0.879452 )     2.43948226
  WF centre and spread   45  (  1.180121,  2.548074,  5.011442 )     5.73782527
  WF centre and spread   46  (  2.426075,  2.102773,  1.623204 )     5.39060437
  WF centre and spread   47  (  0.285709,  3.642609,  4.694398 )     3.05672177
  WF centre and spread   48  (  3.417290,  0.056536,  5.934930 )     0.70569350
  WF centre and spread   49  (  0.254036,  1.411106,  6.013839 )     2.42273060
  WF centre and spread   50  (  1.780252,  0.815848,  2.534201 )     4.93130649
  WF centre and spread   51  (  2.115170,  2.727420,  5.517556 )     2.70311641
  WF centre and spread   52  (  2.916926,  0.075797,  1.668076 )    11.96030303
  WF centre and spread   53  ( -0.585918,  2.069411,  1.688988 )     3.36986814
  WF centre and spread   54  (  1.411267,  2.623497,  3.864708 )     6.19710460
  WF centre and spread   55  (  2.030703,  0.545997,  4.095529 )     1.84117451
  WF centre and spread   56  (  0.395523,  1.517736,  5.276642 )     6.26655987
  WF centre and spread   57  (  0.522928,  2.164605,  3.797128 )     4.73387793
  WF centre and spread   58  ( -0.428658,  0.296284,  5.004711 )     4.87984722
  WF centre and spread   59  (  2.915884,  1.060879,  5.230641 )    10.40069932
  WF centre and spread   60  (  0.110455,  0.224452,  1.125607 )     4.13462087
  WF centre and spread   61  (  2.160251,  1.878975,  5.974073 )     2.83326752
  WF centre and spread   62  (  0.584676,  0.150080,  5.274031 )     2.42903872
  WF centre and spread   63  ( -0.126078,  0.601590,  4.217017 )     6.53002577
  WF centre and spread   64  (  3.135832,  0.453202,  6.034087 )     1.52132660
  Sum of centres and spreads ( 66.839748, 95.443178,214.622457 )   291.76352178
 
      8    -0.615E+01     2.5015662916      291.7635194237     132.32  <-- CONV
        O_D=      2.9315406 O_OD=    178.7993505 O_TOT=    291.7635194 <-- SPRD
 Delta: O_D=  0.2373137E+00 O_OD= -0.6382559E+01 O_TOT= -0.6145245E+01 <-- DLTA
 ------------------------------------------------------------------------------
 Cycle:      9
  WF centre and spread    1  (  2.153948,  0.640733,  1.621324 )    10.27826901
  WF centre and spread    2  (  1.882741,  0.052549,  3.277980 )     6.69933290
  WF centre and spread    3  ( -0.551532,  1.996133,  1.408251 )     6.87940485
  WF centre and spread    4  (  0.991402,  2.341125,  2.225194 )     5.03286873
  WF centre and spread    5  (  2.749000,  0.018848,  0.689636 )     1.71092615
  WF centre and spread    6  (  0.676220,  2.152456,  1.452393 )     2.60988812
  WF centre and spread    7  (  2.617628,  1.579451,  1.273711 )     6.23955547
  WF centre and spread    8  ( -0.568419,  2.806750,  0.887300 )     2.99607188
  WF centre and spread    9  (  1.336043,  0.898799,  4.791261 )     3.54350053
  WF centre and spread   10  (  1.410388,  1.466017,  3.814482 )     3.41093736
  WF centre and spread   11  (  0.986873,  0.768382,  4.783012 )     6.18471322
  WF centre and spread   12  (  0.205207,  2.717231,  1.135812 )     2.74061247
  WF centre and spread   13  (  3.055761,  0.108855,  2.801620 )    13.73651952
  WF centre and spread   14  (  2.435267,  1.161144,  4.284586 )     1.89041047
  WF centre and spread   15  (  0.186982,  2.086551,  0.787504 )     1.34412375
  WF centre and spread   16  (  1.406295,  1.575909,  1.439384 )     4.97971137
  WF centre and spread   17  (  2.811603,  1.277820,  5.985341 )     9.68677607
  WF centre and spread   18  (  0.119087,  0.644509,  0.674059 )     2.31337318
  WF centre and spread   19  ( -0.514107,  1.635677,  4.432370 )     4.64617959
  WF centre and spread   20  (  1.999692,  1.153603,  5.223910 )     1.23946709
  WF centre and spread   21  (  1.287478,  0.052830, -0.018379 )     2.15492651
  WF centre and spread   22  ( -1.406732,  1.808129,  4.586516 )     3.76311608
  WF centre and spread   23  (  2.105568,  1.048975,  0.428634 )     3.60030296
  WF centre and spread   24  (  1.725280,  2.988637,  5.637773 )     1.13314558
  WF centre and spread   25  (  0.806882,  0.697818,  3.189026 )     5.93024211
  WF centre and spread   26  (  0.693899,  0.801289,  5.587838 )     4.03625975
  WF centre and spread   27  ( -0.751531,  2.041682,  1.000661 )     1.76062266
  WF centre and spread   28  ( -0.422763,  2.999174,  4.644399 )     3.84462970
  WF centre and spread   29  (  0.054533,  1.974687,  1.908274 )     4.69663744
  WF centre and spread   30  (  1.112016,  2.355496,  5.747841 )     2.24085818
  WF centre and spread   31  (  0.157461,  1.130598,  2.298065 )     6.88925198
  WF centre and spread   32  (  0.072704,  1.415114,  1.473759 )     1.48586658
  WF centre and spread   33  (  1.380097,  1.612633,  4.702694 )     7.15331427
  WF centre and spread   34  ( -0.059748,  0.626868,  5.487868 )     3.04199072
  WF centre and spread   35  ( -0.115039,  2.654426,  1.830612 )     2.94219364
  WF centre and spread   36  (  4.056226, -0.301092,  1.907834 )     7.37686684
  WF centre and spread   37  ( -1.414977,  2.878509,  4.507211 )     4.30376430
  WF centre and spread   38  (  1.005964,  0.761970,  0.834060 )     2.47914058
  WF centre and spread   39  (  0.631061,  3.034018,  5.323023 )     4.45914303
  WF centre and spread   40  ( -0.733769,  2.419458,  2.652343 )     4.28423869
  WF centre and spread   41  (  2.633227,  1.236006,  2.998805 )     6.87903370
  WF centre and spread   42  ( -0.768280,  3.283530,  4.505155 )     6.22972397
  WF centre and spread   43  (  1.671587,  1.629180,  4.934908 )     4.03249867
  WF centre and spread   44  (  1.121878,  2.147076,  0.868109 )     2.45397711
  WF centre and spread   45  (  1.178660,  2.559006,  5.033083 )     5.48568299
  WF centre and spread   46  (  2.416027,  2.102289,  1.626387 )     5.41219462
  WF centre and spread   47  (  0.273070,  3.656818,  4.701689 )     2.89134088
  WF centre and spread   48  (  3.427653,  0.056731,  5.938965 )     0.68798563
  WF centre and spread   49  (  0.253424,  1.409741,  6.017232 )     2.50511644
  WF centre and spread   50  (  1.762667,  0.816228,  2.542667 )     4.89657599
  WF centre and spread   51  (  2.115876,  2.731817,  5.525996 )     2.63103929
  WF centre and spread   52  (  2.921378,  0.074217,  1.685077 )    11.99416169
  WF centre and spread   53  ( -0.584263,  2.075259,  1.681819 )     3.23939526
  WF centre and spread   54  (  1.410490,  2.609457,  3.858975 )     6.09583240
  WF centre and spread   55  (  2.022758,  0.549374,  4.097517 )     1.76610890
  WF centre and spread   56  (  0.382791,  1.490103,  5.290186 )     6.17053293
  WF centre and spread   57  (  0.520310,  2.159791,  3.789471 )     4.70624374
  WF centre and spread   58  ( -0.420440,  0.283404,  5.031944 )     4.71047480
  WF centre and spread   59  (  2.922137,  1.019790,  5.232205 )    10.01373706
  WF centre and spread   60  (  0.107999,  0.217558,  1.118246 )     4.05969182
  WF centre and spread   61  (  2.154964,  1.898828,  5.982750 )     2.79960359
  WF centre and spread   62  (  0.569487,  0.146665,  5.285302 )     2.34566944
  WF centre and spread   63  ( -0.141074,  0.599997,  4.231797 )     6.39052489
  WF centre and spread   64  (  3.149147,  0.438639,  6.034958 )     1.47552930
  Sum of centres and spreads ( 66.676163, 95.275262,214.732428 )   285.61182840
 
      9    -0.615E+01     2.5806924590      285.6118260624     146.24  <-- CONV
        O_D=      2.9126923 O_OD=    172.6665055 O_TOT=    285.6118261 <-- SPRD
 Delta: O_D= -0.1884837E-01 O_OD= -0.6132845E+01 O_TOT= -0.6151693E+01 <-- DLTA
 ------------------------------------------------------------------------------
 Cycle:     10
  WF centre and spread    1  (  2.113863,  0.617977,  1.601116 )     9.28395877
  WF centre and spread    2  (  1.894747,  0.057008,  3.233235 )     6.56042590
  WF centre and spread    3  ( -0.546473,  2.053119,  1.372742 )     6.20732922
  WF centre and spread    4  (  1.001392,  2.350984,  2.225267 )     5.16534417
  WF centre and spread    5  (  2.776051,  0.011890,  0.666076 )     1.69721344
  WF centre and spread    6  (  0.679683,  2.152555,  1.452811 )     2.48885819
  WF centre and spread    7  (  2.611755,  1.557893,  1.263026 )     6.13045178
  WF centre and spread    8  ( -0.579905,  2.792569,  0.896291 )     3.07794466
  WF centre and spread    9  (  1.342470,  0.893270,  4.792082 )     3.21471167
  WF centre and spread   10  (  1.414824,  1.476240,  3.820372 )     3.34544544
  WF centre and spread   11  (  1.006277,  0.757044,  4.758554 )     5.83449537
  WF centre and spread   12  (  0.211211,  2.716457,  1.141846 )     2.64252344
  WF centre and spread   13  (  3.074293,  0.108746,  2.776035 )    13.95004158
  WF centre and spread   14  (  2.426067,  1.157513,  4.284090 )     1.78452610
  WF centre and spread   15  (  0.173244,  2.075040,  0.801339 )     1.33443802
  WF centre and spread   16  (  1.387090,  1.550954,  1.424777 )     5.13505428
  WF centre and spread   17  (  2.802718,  1.247463,  5.983777 )     9.19164449
  WF centre and spread   18  (  0.108885,  0.648111,  0.670981 )     2.35409712
  WF centre and spread   19  ( -0.528098,  1.637388,  4.432130 )     4.60030197
  WF centre and spread   20  (  2.005147,  1.151611,  5.217791 )     1.21218348
  WF centre and spread   21  (  1.238453,  0.049548, -0.019470 )     2.18080075
  WF centre and spread   22  ( -1.431729,  1.790673,  4.584008 )     3.59700804
  WF centre and spread   23  (  2.109801,  1.030440,  0.422260 )     3.81988512
  WF centre and spread   24  (  1.745485,  3.000238,  5.664603 )     1.06648905
  WF centre and spread   25  (  0.805896,  0.694814,  3.198303 )     5.95613867
  WF centre and spread   26  (  0.654880,  0.753696,  5.623946 )     3.79138273
  WF centre and spread   27  ( -0.745240,  2.034377,  1.002727 )     1.79901197
  WF centre and spread   28  ( -0.420151,  2.988468,  4.644063 )     3.93686160
  WF centre and spread   29  (  0.061869,  1.986827,  1.899786 )     4.40026960
  WF centre and spread   30  (  1.118609,  2.365136,  5.758043 )     2.22094703
  WF centre and spread   31  (  0.160360,  1.114243,  2.318757 )     6.63201807
  WF centre and spread   32  (  0.073733,  1.430315,  1.475371 )     1.46062281
  WF centre and spread   33  (  1.365448,  1.628760,  4.694518 )     6.80272194
  WF centre and spread   34  ( -0.064005,  0.597951,  5.512060 )     2.81138881
  WF centre and spread   35  ( -0.110539,  2.642853,  1.829255 )     2.74339992
  WF centre and spread   36  (  4.093761, -0.299269,  1.887324 )     7.34455720
  WF centre and spread   37  ( -1.417912,  2.892247,  4.549462 )     4.23996908
  WF centre and spread   38  (  0.985839,  0.751165,  0.801781 )     2.61936990
  WF centre and spread   39  (  0.640483,  3.039635,  5.334915 )     4.20423612
  WF centre and spread   40  ( -0.734182,  2.408962,  2.657192 )     4.29157248
  WF centre and spread   41  (  2.618475,  1.246674,  2.994272 )     6.36984936
  WF centre and spread   42  ( -0.823389,  3.291328,  4.566453 )     6.43084623
  WF centre and spread   43  (  1.649237,  1.621246,  4.922908 )     3.95745136
  WF centre and spread   44  (  1.143488,  2.161080,  0.849736 )     2.50279175
  WF centre and spread   45  (  1.178212,  2.574323,  5.064151 )     5.16667851
  WF centre and spread   46  (  2.398674,  2.102086,  1.631580 )     5.47379800
  WF centre and spread   47  (  0.255615,  3.676183,  4.710449 )     2.65890938
  WF centre and spread   48  (  3.444418,  0.056318,  5.945360 )     0.66623741
  WF centre and spread   49  (  0.253247,  1.405972,  6.020871 )     2.66167313
  WF centre and spread   50  (  1.738769,  0.817112,  2.555472 )     4.90716972
  WF centre and spread   51  (  2.116651,  2.739158,  5.538071 )     2.54091815
  WF centre and spread   52  (  2.930590,  0.060456,  1.651590 )    11.78967155
  WF centre and spread   53  ( -0.583934,  2.085399,  1.672780 )     3.02736231
  WF centre and spread   54  (  1.410566,  2.590652,  3.847772 )     5.96764501
  WF centre and spread   55  (  2.010723,  0.554769,  4.099599 )     1.66923965
  WF centre and spread   56  (  0.362661,  1.448751,  5.304538 )     6.08045529
  WF centre and spread   57  (  0.515714,  2.151159,  3.775421 )     4.71889235
  WF centre and spread   58  ( -0.408867,  0.263563,  5.070983 )     4.51784037
  WF centre and spread   59  (  2.940940,  0.955081,  5.245391 )     9.47579598
  WF centre and spread   60  (  0.104377,  0.207131,  1.105164 )     3.96005415
  WF centre and spread   61  (  2.146291,  1.929701,  5.996130 )     2.76707371
  WF centre and spread   62  (  0.546337,  0.141960,  5.302873 )     2.24054434
  WF centre and spread   63  ( -0.160026,  0.598894,  4.247255 )     6.27207339
  WF centre and spread   64  (  3.171563,  0.416317,  6.036005 )     1.43971846
  Sum of centres and spreads ( 66.466429, 95.010225,214.808064 )   278.39232955
 
     10    -0.722E+01     2.8081271110      278.3923272495     159.91  <-- CONV
        O_D=      2.4965873 O_OD=    165.8631116 O_TOT=    278.3923272 <-- SPRD
 Delta: O_D= -0.4161049E+00 O_OD= -0.6803394E+01 O_TOT= -0.7219499E+01 <-- DLTA
 ------------------------------------------------------------------------------
 Cycle:     11
  WF centre and spread    1  (  2.081427,  0.592859,  1.594133 )     8.53645570
  WF centre and spread    2  (  1.904959,  0.059092,  3.200698 )     6.44632571
  WF centre and spread    3  ( -0.541329,  2.099590,  1.345746 )     5.61082989
  WF centre and spread    4  (  1.009525,  2.359959,  2.227604 )     5.29240708
  WF centre and spread    5  (  2.803641,  0.005791,  0.642237 )     1.69255622
  WF centre and spread    6  (  0.681363,  2.152559,  1.453050 )     2.36276936
  WF centre and spread    7  (  2.603428,  1.533901,  1.252600 )     6.07221919
  WF centre and spread    8  ( -0.593165,  2.779013,  0.905164 )     3.16073788
  WF centre and spread    9  (  1.346655,  0.891208,  4.790039 )     2.92234577
  WF centre and spread   10  (  1.420256,  1.486130,  3.825603 )     3.30744199
  WF centre and spread   11  (  1.025829,  0.755115,  4.736615 )     5.57303428
  WF centre and spread   12  (  0.213798,  2.714617,  1.149013 )     2.55267042
  WF centre and spread   13  (  3.083757,  0.110627,  2.756510 )    14.12468281
  WF centre and spread   14  (  2.417310,  1.154331,  4.283057 )     1.69875917
  WF centre and spread   15  (  0.160758,  2.064754,  0.813489 )     1.32894377
  WF centre and spread   16  (  1.367955,  1.528981,  1.411173 )     5.27054932
  WF centre and spread   17  (  2.804309,  1.220890,  5.976316 )     8.92511994
  WF centre and spread   18  (  0.101321,  0.651526,  0.666594 )     2.38982972
  WF centre and spread   19  ( -0.540132,  1.640627,  4.429559 )     4.57094580
  WF centre and spread   20  (  2.010814,  1.150365,  5.211775 )     1.19253675
  WF centre and spread   21  (  1.191773,  0.045469, -0.021290 )     2.21374980
  WF centre and spread   22  ( -1.455443,  1.772034,  4.578505 )     3.45361414
  WF centre and spread   23  (  2.114404,  1.010889,  0.416085 )     4.05201448
  WF centre and spread   24  (  1.762604,  3.010937,  5.690605 )     1.01032283
  WF centre and spread   25  (  0.808943,  0.691939,  3.209640 )     5.97567197
  WF centre and spread   26  (  0.615725,  0.710733,  5.654366 )     3.54212935
  WF centre and spread   27  ( -0.738344,  2.027589,  1.004990 )     1.83920919
  WF centre and spread   28  ( -0.416204,  2.976269,  4.642992 )     4.02655378
  WF centre and spread   29  (  0.067151,  1.996801,  1.897515 )     4.09825492
  WF centre and spread   30  (  1.125445,  2.375612,  5.767774 )     2.21093018
  WF centre and spread   31  (  0.164461,  1.095779,  2.340809 )     6.41211055
  WF centre and spread   32  (  0.074906,  1.443079,  1.475959 )     1.43979817
  WF centre and spread   33  (  1.347892,  1.640884,  4.679192 )     6.48593024
  WF centre and spread   34  ( -0.068582,  0.574705,  5.533382 )     2.59505766
  WF centre and spread   35  ( -0.105611,  2.632199,  1.827517 )     2.57246418
  WF centre and spread   36  (  4.128694, -0.291860,  1.873002 )     7.34210913
  WF centre and spread   37  ( -1.420730,  2.905614,  4.590355 )     4.21034613
  WF centre and spread   38  (  0.966215,  0.740200,  0.770818 )     2.76169716
  WF centre and spread   39  (  0.654963,  3.044204,  5.343113 )     3.99250778
  WF centre and spread   40  ( -0.735048,  2.400126,  2.664065 )     4.33868126
  WF centre and spread   41  (  2.607111,  1.256078,  2.996222 )     5.97005030
  WF centre and spread   42  ( -0.872544,  3.295328,  4.614933 )     6.71916787
  WF centre and spread   43  (  1.629157,  1.615919,  4.910481 )     3.90358958
  WF centre and spread   44  (  1.164506,  2.174543,  0.831611 )     2.54815191
  WF centre and spread   45  (  1.180887,  2.586998,  5.093804 )     4.88667504
  WF centre and spread   46  (  2.379686,  2.101611,  1.636505 )     5.50375649
  WF centre and spread   47  (  0.240366,  3.693167,  4.717260 )     2.45519286
  WF centre and spread   48  (  3.461209,  0.055060,  5.951535 )     0.64863826
  WF centre and spread   49  (  0.254062,  1.400210,  6.022996 )     2.82317815
  WF centre and spread   50  (  1.718951,  0.820214,  2.567748 )     4.91176180
  WF centre and spread   51  (  2.116676,  2.746531,  5.548301 )     2.45208970
  WF centre and spread   52  (  2.946526,  0.044793,  1.635600 )    11.57488780
  WF centre and spread   53  ( -0.586560,  2.094387,  1.666731 )     2.79639856
  WF centre and spread   54  (  1.411936,  2.573930,  3.836327 )     5.83918908
  WF centre and spread   55  (  1.999452,  0.560600,  4.100794 )     1.59171004
  WF centre and spread   56  (  0.343773,  1.411078,  5.312666 )     5.99945687
[...]
  WF centre and spread   46  (  2.073193,  2.219796,  1.842680 )     4.37319213
  WF centre and spread   47  (  0.209360,  3.753712,  4.758061 )     1.46916996
  WF centre and spread   48  (  3.633639,  0.009856,  6.007579 )     0.43223138
  WF centre and spread   49  (  0.402386,  1.624920,  5.794568 )     5.14867001
  WF centre and spread   50  (  1.428294,  1.198073,  2.748565 )     4.78419928
  WF centre and spread   51  (  2.207088,  2.735318,  5.564338 )     2.03623887
  WF centre and spread   52  (  3.008401,  0.294271,  1.396513 )    15.80491699
  WF centre and spread   53  ( -0.512303,  2.019746,  1.821150 )     1.25981572
  WF centre and spread   54  (  1.419543,  2.661178,  3.841983 )     3.37621657
  WF centre and spread   55  (  1.879975,  0.596030,  4.097103 )     1.21232824
  WF centre and spread   56  (  0.128014,  1.510065,  5.029760 )     6.82438864
  WF centre and spread   57  (  0.501070,  1.850988,  3.422278 )     3.91706892
  WF centre and spread   58  ( -0.283072,  0.327797,  5.005811 )     3.29445542
  WF centre and spread   59  (  3.050578,  0.280656,  5.826204 )     4.45932233
  WF centre and spread   60  ( -0.033766,  0.152858,  1.054093 )     2.59661029
  WF centre and spread   61  (  2.051317,  2.188656,  6.060668 )     1.87053152
  WF centre and spread   62  (  0.266283,  0.101920,  5.678198 )     1.16397413
  WF centre and spread   63  ( -0.162190,  0.703341,  4.136742 )     6.35812198
  WF centre and spread   64  (  3.558140,  0.093728,  6.026257 )     0.80525921
  Sum of centres and spreads ( 65.387408, 93.702574,216.428116 )   220.50520591
 
     98    -0.650E-01     0.6763077355      220.5052040469    1374.73  <-- CONV
        O_D=      1.8938628 O_OD=    108.5787130 O_TOT=    220.5052040 <-- SPRD
 Delta: O_D=  0.2332339E-03 O_OD= -0.6520269E-01 O_TOT= -0.6496945E-01 <-- DLTA
 ------------------------------------------------------------------------------
 Cycle:     99
  WF centre and spread    1  (  1.929342,  0.412874,  1.454546 )     3.72191707
  WF centre and spread    2  (  2.131447,  0.193989,  3.079002 )     3.93088605
  WF centre and spread    3  ( -0.380406,  2.388877,  1.368404 )     2.33243702
  WF centre and spread    4  (  1.066837,  2.611970,  2.533072 )     3.53162282
  WF centre and spread    5  (  2.878251,  0.004121,  0.583680 )     1.79129767
  WF centre and spread    6  (  0.612896,  2.102760,  1.476268 )     1.22041967
  WF centre and spread    7  (  2.444193,  1.308240,  1.310429 )     4.96764626
  WF centre and spread    8  ( -1.122932,  2.801788,  0.690640 )     1.77015395
  WF centre and spread    9  (  1.415844,  0.829098,  4.851884 )     1.14209198
  WF centre and spread   10  (  1.578430,  1.371898,  3.967825 )     1.69495594
  WF centre and spread   11  (  1.510713,  0.967980,  4.528859 )     2.41595626
  WF centre and spread   12  (  0.182184,  2.567026,  1.244041 )     1.54200915
  WF centre and spread   13  (  2.500545,  0.384846,  2.862362 )    15.78362875
  WF centre and spread   14  (  2.400981,  1.100509,  4.290627 )     1.25056658
  WF centre and spread   15  (  0.184369,  2.032760,  0.894229 )     1.29957282
  WF centre and spread   16  (  1.344161,  1.368042,  1.324139 )     4.12676399
  WF centre and spread   17  (  2.825142,  0.830102,  6.026042 )    11.30744784
  WF centre and spread   18  ( -0.028102,  0.817000,  0.539745 )     2.03723309
  WF centre and spread   19  ( -0.722167,  1.876000,  4.370061 )     4.50309775
  WF centre and spread   20  (  2.109497,  1.215509,  5.101783 )     1.11650217
  WF centre and spread   21  (  1.071947, -0.038609, -0.090678 )     1.99436133
  WF centre and spread   22  ( -1.645785,  1.518579,  4.442211 )     1.96549201
  WF centre and spread   23  (  1.951816,  0.762589,  0.314471 )     5.26363321
  WF centre and spread   24  (  1.825037,  3.152212,  5.999635 )     0.47702119
  WF centre and spread   25  (  0.806172,  0.478008,  3.418282 )     4.03093488
  WF centre and spread   26  (  0.410576,  0.461630,  5.736514 )     2.01100026
  WF centre and spread   27  ( -0.407616,  1.901257,  1.132350 )     1.62782105
  WF centre and spread   28  ( -0.317336,  2.767685,  4.230177 )     4.14304640
  WF centre and spread   29  (  0.198902,  1.972654,  1.953019 )     1.57640554
  WF centre and spread   30  (  1.174443,  2.381953,  5.915099 )     2.24966893
  WF centre and spread   31  (  0.042314,  0.947011,  2.527706 )     3.60198349
  WF centre and spread   32  (  0.100042,  1.466758,  1.483463 )     1.22662164
  WF centre and spread   33  (  0.612157,  1.885169,  4.648894 )     4.73129462
  WF centre and spread   34  ( -0.036502,  0.354825,  5.833464 )     1.43436642
  WF centre and spread   35  ( -0.004689,  2.569388,  1.860028 )     1.47897957
  WF centre and spread   36  (  4.420017,  0.036283,  2.058681 )     5.61947956
  WF centre and spread   37  ( -1.544778,  3.074261,  5.173889 )     3.07568906
  WF centre and spread   38  (  0.709769,  0.494480,  0.594500 )     2.61224024
  WF centre and spread   39  (  0.804989,  3.011090,  5.511235 )     2.29895713
  WF centre and spread   40  ( -0.628215,  2.355831,  2.794141 )     6.14440371
  WF centre and spread   41  (  2.598753,  1.288530,  2.972773 )     3.54851921
  WF centre and spread   42  ( -0.898444,  2.712797,  4.462274 )     8.91078539
  WF centre and spread   43  (  1.466495,  1.506378,  4.731628 )     2.83875958
  WF centre and spread   44  (  1.531200,  2.450137,  0.749173 )     2.28040826
  WF centre and spread   45  (  1.458299,  2.682937,  5.359058 )     2.58252211
  WF centre and spread   46  (  2.071381,  2.221630,  1.844291 )     4.38149103
  WF centre and spread   47  (  0.209547,  3.753541,  4.758431 )     1.46887274
  WF centre and spread   48  (  3.634004,  0.009637,  6.007744 )     0.43186872
  WF centre and spread   49  (  0.402094,  1.627719,  5.791747 )     5.17806900
  WF centre and spread   50  (  1.427989,  1.200602,  2.748492 )     4.78066750
  WF centre and spread   51  (  2.207541,  2.734981,  5.564546 )     2.03969825
  WF centre and spread   52  (  3.009790,  0.292700,  1.387394 )    15.78717894
  WF centre and spread   53  ( -0.511946,  2.018637,  1.821667 )     1.25846267
  WF centre and spread   54  (  1.420518,  2.659642,  3.841859 )     3.37752413
  WF centre and spread   55  (  1.879643,  0.596190,  4.097250 )     1.21307892
  WF centre and spread   56  (  0.127962,  1.513577,  5.025583 )     6.86962605
  WF centre and spread   57  (  0.501194,  1.850015,  3.421333 )     3.91893898
  WF centre and spread   58  ( -0.282451,  0.329085,  5.005212 )     3.27264455
  WF centre and spread   59  (  3.046460,  0.284128,  5.827818 )     4.42580036
  WF centre and spread   60  ( -0.034538,  0.153107,  1.054649 )     2.58572568
  WF centre and spread   61  (  2.051557,  2.189901,  6.061110 )     1.86909309
  WF centre and spread   62  (  0.263629,  0.101399,  5.681198 )     1.15794788
  WF centre and spread   63  ( -0.161647,  0.704468,  4.137006 )     6.36247683
  WF centre and spread   64  (  3.560155,  0.091947,  6.026057 )     0.79773452
  Sum of centres and spreads ( 65.383669, 93.712126,216.413011 )   220.38750142
 
     99    -0.118E+00     0.6885351910      220.3874995510    1388.73  <-- CONV
        O_D=      1.9066365 O_OD=    108.4482347 O_TOT=    220.3874996 <-- SPRD
 Delta: O_D=  0.1277379E-01 O_OD= -0.1304783E+00 O_TOT= -0.1177045E+00 <-- DLTA
 ------------------------------------------------------------------------------
 Cycle:    100
  WF centre and spread    1  (  1.929233,  0.412909,  1.454301 )     3.72202698
  WF centre and spread    2  (  2.131643,  0.194166,  3.079028 )     3.92940706
  WF centre and spread    3  ( -0.380291,  2.388990,  1.368501 )     2.33020305
  WF centre and spread    4  (  1.066738,  2.612195,  2.533213 )     3.53120603
  WF centre and spread    5  (  2.878160,  0.004196,  0.583666 )     1.79151954
  WF centre and spread    6  (  0.612847,  2.102831,  1.476232 )     1.22051473
  WF centre and spread    7  (  2.444050,  1.308247,  1.310371 )     4.96527170
  WF centre and spread    8  ( -1.123279,  2.801887,  0.690303 )     1.77003962
  WF centre and spread    9  (  1.415896,  0.829048,  4.851922 )     1.14199173
  WF centre and spread   10  (  1.578450,  1.371572,  3.967983 )     1.69331719
  WF centre and spread   11  (  1.510655,  0.967887,  4.528852 )     2.41511716
  WF centre and spread   12  (  0.182162,  2.566945,  1.243984 )     1.54197057
  WF centre and spread   13  (  2.497377,  0.385784,  2.863075 )    15.76526902
  WF centre and spread   14  (  2.401023,  1.100441,  4.290677 )     1.25018896
  WF centre and spread   15  (  0.184428,  2.032747,  0.894262 )     1.29959934
  WF centre and spread   16  (  1.344144,  1.368106,  1.323996 )     4.12578955
  WF centre and spread   17  (  2.824721,  0.829616,  6.026002 )    11.31961634
  WF centre and spread   18  ( -0.028290,  0.817190,  0.539670 )     2.03600787
  WF centre and spread   19  ( -0.722388,  1.876333,  4.369839 )     4.50319688
  WF centre and spread   20  (  2.109581,  1.215582,  5.101698 )     1.11661211
  WF centre and spread   21  (  1.072039, -0.038610, -0.090731 )     1.99397158
  WF centre and spread   22  ( -1.645891,  1.518532,  4.442188 )     1.96496657
  WF centre and spread   23  (  1.951722,  0.762812,  0.314492 )     5.26268248
  WF centre and spread   24  (  1.825034,  3.152248,  5.999692 )     0.47689526
  WF centre and spread   25  (  0.806188,  0.477819,  3.418355 )     4.03128942
  WF centre and spread   26  (  0.410725,  0.461856,  5.736323 )     2.01065697
  WF centre and spread   27  ( -0.407530,  1.901168,  1.132344 )     1.62745916
  WF centre and spread   28  ( -0.317422,  2.767556,  4.229942 )     4.14262893
  WF centre and spread   29  (  0.198956,  1.972623,  1.953033 )     1.57632685
  WF centre and spread   30  (  1.174489,  2.381861,  5.915254 )     2.24924255
  WF centre and spread   31  (  0.042193,  0.946991,  2.527835 )     3.60081534
  WF centre and spread   32  (  0.100023,  1.466769,  1.483459 )     1.22645325
  WF centre and spread   33  (  0.611185,  1.885526,  4.649159 )     4.73148735
  WF centre and spread   34  ( -0.036455,  0.354525,  5.833735 )     1.43389846
  WF centre and spread   35  ( -0.004657,  2.569398,  1.860065 )     1.47880586
  WF centre and spread   36  (  4.420269,  0.036770,  2.058678 )     5.61608798
  WF centre and spread   37  ( -1.544902,  3.074737,  5.174699 )     3.07208901
  WF centre and spread   38  (  0.709692,  0.494526,  0.594495 )     2.61159112
  WF centre and spread   39  (  0.805128,  3.010965,  5.511482 )     2.29771594
  WF centre and spread   40  ( -0.628003,  2.355877,  2.794228 )     6.14648203
  WF centre and spread   41  (  2.598684,  1.288534,  2.972894 )     3.54761790
  WF centre and spread   42  ( -0.898094,  2.712034,  4.461570 )     8.90571878
  WF centre and spread   43  (  1.466753,  1.506098,  4.731485 )     2.83323274
  WF centre and spread   44  (  1.531362,  2.450295,  0.749226 )     2.27997391
  WF centre and spread   45  (  1.458549,  2.682924,  5.358838 )     2.58193162
  WF centre and spread   46  (  2.071141,  2.221844,  1.844506 )     4.38235245
  WF centre and spread   47  (  0.209569,  3.753524,  4.758463 )     1.46869622
  WF centre and spread   48  (  3.634051,  0.009609,  6.007764 )     0.43181791
  WF centre and spread   49  (  0.401961,  1.628104,  5.791387 )     5.18182532
  WF centre and spread   50  (  1.427944,  1.200909,  2.748465 )     4.77968346
  WF centre and spread   51  (  2.207602,  2.734934,  5.564582 )     2.03995954
  WF centre and spread   52  (  3.007613,  0.292600,  1.400329 )    15.76430659
  WF centre and spread   53  ( -0.511898,  2.018492,  1.821736 )     1.25824104
  WF centre and spread   54  (  1.420654,  2.659465,  3.841821 )     3.37762294
  WF centre and spread   55  (  1.879588,  0.596207,  4.097266 )     1.21320360
  WF centre and spread   56  (  0.127954,  1.514015,  5.025066 )     6.87448620
  WF centre and spread   57  (  0.501176,  1.849907,  3.421277 )     3.91935844
  WF centre and spread   58  ( -0.282369,  0.329256,  5.005163 )     3.26933022
  WF centre and spread   59  (  3.045902,  0.284665,  5.827928 )     4.42058595
  WF centre and spread   60  ( -0.034635,  0.153147,  1.054683 )     2.58439931
  WF centre and spread   61  (  2.051585,  2.190087,  6.061160 )     1.86869969
  WF centre and spread   62  (  0.263272,  0.101326,  5.681601 )     1.15710879
  WF centre and spread   63  ( -0.161589,  0.704632,  4.137230 )     6.36233997
  WF centre and spread   64  (  3.560422,  0.091709,  6.026031 )     0.79667374
  Sum of centres and spreads ( 65.376840, 93.714938,216.426773 )   220.31957789
 
    100    -0.679E-01     0.6355149231      220.3195760229    1402.69  <-- CONV
        O_D=      1.8772821 O_OD=    108.4096656 O_TOT=    220.3195760 <-- SPRD
 Delta: O_D= -0.2935442E-01 O_OD= -0.3856911E-01 O_TOT= -0.6792353E-01 <-- DLTA
 ------------------------------------------------------------------------------

 Writing checkpoint file wannier90.chk... done

 Final State
  WF centre and spread    1  (  1.929233,  0.412909,  1.454301 )     3.72202698
  WF centre and spread    2  (  2.131643,  0.194166,  3.079028 )     3.92940706
  WF centre and spread    3  ( -0.380291,  2.388990,  1.368501 )     2.33020305
  WF centre and spread    4  (  1.066738,  2.612195,  2.533213 )     3.53120603
  WF centre and spread    5  (  2.878160,  0.004196,  0.583666 )     1.79151954
  WF centre and spread    6  (  0.612847,  2.102831,  1.476232 )     1.22051473
  WF centre and spread    7  (  2.444050,  1.308247,  1.310371 )     4.96527170
  WF centre and spread    8  ( -1.123279,  2.801887,  0.690303 )     1.77003962
  WF centre and spread    9  (  1.415896,  0.829048,  4.851922 )     1.14199173
  WF centre and spread   10  (  1.578450,  1.371572,  3.967983 )     1.69331719
  WF centre and spread   11  (  1.510655,  0.967887,  4.528852 )     2.41511716
  WF centre and spread   12  (  0.182162,  2.566945,  1.243984 )     1.54197057
  WF centre and spread   13  (  2.497377,  0.385784,  2.863075 )    15.76526902
  WF centre and spread   14  (  2.401023,  1.100441,  4.290677 )     1.25018896
  WF centre and spread   15  (  0.184428,  2.032747,  0.894262 )     1.29959934
  WF centre and spread   16  (  1.344144,  1.368106,  1.323996 )     4.12578955
  WF centre and spread   17  (  2.824721,  0.829616,  6.026002 )    11.31961634
  WF centre and spread   18  ( -0.028290,  0.817190,  0.539670 )     2.03600787
  WF centre and spread   19  ( -0.722388,  1.876333,  4.369839 )     4.50319688
  WF centre and spread   20  (  2.109581,  1.215582,  5.101698 )     1.11661211
  WF centre and spread   21  (  1.072039, -0.038610, -0.090731 )     1.99397158
  WF centre and spread   22  ( -1.645891,  1.518532,  4.442188 )     1.96496657
  WF centre and spread   23  (  1.951722,  0.762812,  0.314492 )     5.26268248
  WF centre and spread   24  (  1.825034,  3.152248,  5.999692 )     0.47689526
  WF centre and spread   25  (  0.806188,  0.477819,  3.418355 )     4.03128942
  WF centre and spread   26  (  0.410725,  0.461856,  5.736323 )     2.01065697
  WF centre and spread   27  ( -0.407530,  1.901168,  1.132344 )     1.62745916
  WF centre and spread   28  ( -0.317422,  2.767556,  4.229942 )     4.14262893
  WF centre and spread   29  (  0.198956,  1.972623,  1.953033 )     1.57632685
  WF centre and spread   30  (  1.174489,  2.381861,  5.915254 )     2.24924255
  WF centre and spread   31  (  0.042193,  0.946991,  2.527835 )     3.60081534
  WF centre and spread   32  (  0.100023,  1.466769,  1.483459 )     1.22645325
  WF centre and spread   33  (  0.611185,  1.885526,  4.649159 )     4.73148735
  WF centre and spread   34  ( -0.036455,  0.354525,  5.833735 )     1.43389846
  WF centre and spread   35  ( -0.004657,  2.569398,  1.860065 )     1.47880586
  WF centre and spread   36  (  4.420269,  0.036770,  2.058678 )     5.61608798
  WF centre and spread   37  ( -1.544902,  3.074737,  5.174699 )     3.07208901
  WF centre and spread   38  (  0.709692,  0.494526,  0.594495 )     2.61159112
  WF centre and spread   39  (  0.805128,  3.010965,  5.511482 )     2.29771594
  WF centre and spread   40  ( -0.628003,  2.355877,  2.794228 )     6.14648203
  WF centre and spread   41  (  2.598684,  1.288534,  2.972894 )     3.54761790
  WF centre and spread   42  ( -0.898094,  2.712034,  4.461570 )     8.90571878
  WF centre and spread   43  (  1.466753,  1.506098,  4.731485 )     2.83323274
  WF centre and spread   44  (  1.531362,  2.450295,  0.749226 )     2.27997391
  WF centre and spread   45  (  1.458549,  2.682924,  5.358838 )     2.58193162
  WF centre and spread   46  (  2.071141,  2.221844,  1.844506 )     4.38235245
  WF centre and spread   47  (  0.209569,  3.753524,  4.758463 )     1.46869622
  WF centre and spread   48  (  3.634051,  0.009609,  6.007764 )     0.43181791
  WF centre and spread   49  (  0.401961,  1.628104,  5.791387 )     5.18182532
  WF centre and spread   50  (  1.427944,  1.200909,  2.748465 )     4.77968346
  WF centre and spread   51  (  2.207602,  2.734934,  5.564582 )     2.03995954
  WF centre and spread   52  (  3.007613,  0.292600,  1.400329 )    15.76430659
  WF centre and spread   53  ( -0.511898,  2.018492,  1.821736 )     1.25824104
  WF centre and spread   54  (  1.420654,  2.659465,  3.841821 )     3.37762294
  WF centre and spread   55  (  1.879588,  0.596207,  4.097266 )     1.21320360
  WF centre and spread   56  (  0.127954,  1.514015,  5.025066 )     6.87448620
  WF centre and spread   57  (  0.501176,  1.849907,  3.421277 )     3.91935844
  WF centre and spread   58  ( -0.282369,  0.329256,  5.005163 )     3.26933022
  WF centre and spread   59  (  3.045902,  0.284665,  5.827928 )     4.42058595
  WF centre and spread   60  ( -0.034635,  0.153147,  1.054683 )     2.58439931
  WF centre and spread   61  (  2.051585,  2.190087,  6.061160 )     1.86869969
  WF centre and spread   62  (  0.263272,  0.101326,  5.681601 )     1.15710879
  WF centre and spread   63  ( -0.161589,  0.704632,  4.137230 )     6.36233997
  WF centre and spread   64  (  3.560422,  0.091709,  6.026031 )     0.79667374
  Sum of centres and spreads ( 65.376840, 93.714938,216.426773 )   220.31957789
 
         Spreads (Ang^2)       Omega I      =   110.032628303
        ================       Omega D      =     1.877282125
                               Omega OD     =   108.409665595
    Final Spread (Ang^2)       Omega Total  =   220.319576023
 ------------------------------------------------------------------------------
 Time for wannierise         1386.460 (sec)

 Writing checkpoint file wannier90.chk... done

 *---------------------------------------------------------------------------*
 |                               PLOTTING                                    |
 *---------------------------------------------------------------------------*
 
 
 Calculating interpolated band-structure
 
 Time to calculate interpolated band structure      25.340 (sec)
 
 Time for plotting             25.740 (sec)
 Total Execution Time        1434.504 (sec)

 *===========================================================================*
 |                             TIMING INFORMATION                            |
 *===========================================================================*
 |    Tag                                                Ncalls      Time (s)|
 |---------------------------------------------------------------------------|
 |kmesh: get                                        :         1         0.048|
 |overlap: read                                     :         1        20.832|
 |wann: main                                        :         1      1386.460|
 |plot: main                                        :         1        25.740|
 *---------------------------------------------------------------------------*
 
 All done: wannier90 exiting
