 vasp.5.4.1 24Jun15 (build Feb 06 2016 13:21:38) complex                        
  
 executed on             IFC_2016 date 2016.10.30  15:14:34
 running on   32 total cores
 distrk:  each k-point on    4 cores,    8 groups
 distr:  one band on NCORES_PER_BAND=   1 cores,    4 groups


--------------------------------------------------------------------------------------------------------


 INCAR:
 POTCAR:   PAW_PBE Sn_d 06Sep2000                 
 POTCAR:    PAW_PBE S 17Jan2003                   

 ----------------------------------------------------------------------------- 
|                                                                             |
|           W    W    AA    RRRRR   N    N  II  N    N   GGGG   !!!           |
|           W    W   A  A   R    R  NN   N  II  NN   N  G    G  !!!           |
|           W    W  A    A  R    R  N N  N  II  N N  N  G       !!!           |
|           W WW W  AAAAAA  RRRRR   N  N N  II  N  N N  G  GGG   !            |
|           WW  WW  A    A  R   R   N   NN  II  N   NN  G    G                |
|           W    W  A    A  R    R  N    N  II  N    N   GGGG   !!!           |
|                                                                             |
|      For optimal performance we recommend to set                            |
|        NCORE= 4 - approx SQRT( number of cores)                             |
|      NCORE specifies how many cores store one orbital (NPAR=cpu/NCORE).     |
|      This setting can  greatly improve the performance of VASP for DFT.     |
|      The default, NPAR=number of cores might be grossly inefficient         |
|      on modern multi-core architectures or massively parallel machines.     |
|      Do your own testing !!!!                                               |
|      Unfortunately you need to use the default for GW and RPA calculations. |
|      (for HF NCORE is supported but not extensively tested yet)             |
|                                                                             |
 ----------------------------------------------------------------------------- 


 ----------------------------------------------------------------------------- 
|                                                                             |
|           W    W    AA    RRRRR   N    N  II  N    N   GGGG   !!!           |
|           W    W   A  A   R    R  NN   N  II  NN   N  G    G  !!!           |
|           W    W  A    A  R    R  N N  N  II  N N  N  G       !!!           |
|           W WW W  AAAAAA  RRRRR   N  N N  II  N  N N  G  GGG   !            |
|           WW  WW  A    A  R   R   N   NN  II  N   NN  G    G                |
|           W    W  A    A  R    R  N    N  II  N    N   GGGG   !!!           |
|                                                                             |
|      You have enabled k-point parallelism (KPAR>1).                         |
|      This developmental code was originally  written by Paul Kent at ORNL,  |
|      and carefully double checked in Vienna.                                |
|      GW as well as linear response parallelism added by Martijn Marsman     |
|      and Georg Kresse.                                                      |
|      Carefully verify results versus KPAR=1.                                |
|      Report problems to Paul Kent and Vienna.                               |
|                                                                             |
 ----------------------------------------------------------------------------- 

 POTCAR:   PAW_PBE Sn_d 06Sep2000                 
   VRHFIN =Sn: s2p2                                                             
   LEXCH  = PE                                                                  
   EATOM  =  1893.0782 eV,  139.1373 Ry                                         
                                                                                
   TITEL  = PAW_PBE Sn_d 06Sep2000                                              
   LULTRA =        F    use ultrasoft PP ?                                      
   IUNSCR =        1    unscreen: 0-lin 1-nonlin 2-no                           
   RPACOR =    2.300    partial core radius                                     
   POMASS =  118.710; ZVAL   =   14.000    mass and valenz                      
   RCORE  =    2.500    outmost cutoff radius                                   
   RWIGS  =    2.960; RWIGS  =    1.566    wigner-seitz radius (au A)           
   ENMAX  =  241.090; ENMIN  =  180.817 eV                                      
   ICORE  =        3    local potential                                         
   LCOR   =        T    correct aug charges                                     
   LPAW   =        T    paw PP                                                  
   EAUG   =  439.825                                                            
   DEXC   =    -.001                                                            
   RMAX   =    2.969    core radius for proj-oper                               
   RAUG   =    1.300    factor for augmentation sphere                          
   RDEP   =    2.659    radius for radial grids                                 
   QCUT   =   -4.209; QGAM   =    8.419    optimization parameters              
                                                                                
   Description                                                                  
     l     E      TYP  RCUT    TYP  RCUT                                        
     2   .000     23  2.500                                                     
     2  -.400     23  2.500                                                     
     0   .000     23  2.500                                                     
     0  1.000     23  2.500                                                     
     1   .000     23  2.500                                                     
     1   .000     23  2.500                                                     
     3  -.100      7  2.500                                                     
  local pseudopotential read in
  partial core-charges read in
  atomic valenz-charges read in
  non local Contribution for L=           2  read in
    real space projection operators read in
  non local Contribution for L=           2  read in
    real space projection operators read in
  non local Contribution for L=           0  read in
    real space projection operators read in
  non local Contribution for L=           0  read in
    real space projection operators read in
  non local Contribution for L=           1  read in
    real space projection operators read in
  non local Contribution for L=           1  read in
    real space projection operators read in
    PAW grid and wavefunctions read in
 
   number of l-projection  operators is LMAX  =           6
   number of lm-projection operators is LMMAX =          18
 
 POTCAR:    PAW_PBE S 17Jan2003                   
   VRHFIN =S : s2p4                                                             
   LEXCH  = PE                                                                  
   EATOM  =   276.8230 eV,   20.3459 Ry                                         
                                                                                
   TITEL  = PAW_PBE S 17Jan2003                                                 
   LULTRA =        F    use ultrasoft PP ?                                      
   IUNSCR =        1    unscreen: 0-lin 1-nonlin 2-no                           
   RPACOR =    1.500    partial core radius                                     
   POMASS =   32.066; ZVAL   =    6.000    mass and valenz                      
   RCORE  =    1.900    outmost cutoff radius                                   
   RWIGS  =    2.200; RWIGS  =    1.164    wigner-seitz radius (au A)           
   ENMAX  =  280.000; ENMIN  =  194.016 eV                                      
   ICORE  =        2    local potential                                         
   LCOR   =        T    correct aug charges                                     
   LPAW   =        T    paw PP                                                  
   EAUG   =  335.092                                                            
   DEXC   =     .000                                                            
   RMAX   =    2.867    core radius for proj-oper                               
   RAUG   =    1.300    factor for augmentation sphere                          
   RDEP   =    1.954    radius for radial grids                                 
   QCUT   =   -4.360; QGAM   =    8.721    optimization parameters              
                                                                                
   Description                                                                  
     l     E      TYP  RCUT    TYP  RCUT                                        
     0   .000     23  1.900                                                     
     0   .000     23  1.900                                                     
     1   .000     23  1.900                                                     
     1   .000     23  1.900                                                     
     2   .000     23  1.900                                                     
  local pseudopotential read in
  partial core-charges read in
  atomic valenz-charges read in
  non local Contribution for L=           0  read in
    real space projection operators read in
  non local Contribution for L=           0  read in
    real space projection operators read in
  non local Contribution for L=           1  read in
    real space projection operators read in
  non local Contribution for L=           1  read in
    real space projection operators read in
    PAW grid and wavefunctions read in
 
   number of l-projection  operators is LMAX  =           4
   number of lm-projection operators is LMMAX =           8
 
 PAW_PBE Sn_d 06Sep2000                 :
 energy of atom  1       EATOM=-1893.0782
 kinetic energy error for atom=    0.0047 (will be added to EATOM!!)
  PAW_PBE S 17Jan2003                   :
 energy of atom  2       EATOM= -276.8230
 kinetic energy error for atom=    0.0046 (will be added to EATOM!!)
 
 
 POSCAR: SnS2                                    
  positions in direct lattice
  velocities in cartesian coordinates
 exchange correlation table for  LEXCH =        8
   RHO(1)=    0.500       N(1)  =     2000
   RHO(2)=  100.500       N(2)  =     4000
 


--------------------------------------------------------------------------------------------------------


 ion  position               nearest neighbor table
   1  0.000  0.000  0.000-   3 2.57   2 2.57   3 2.57   3 2.57   2 2.57   2 2.57
   2  0.333  0.667  0.245-   1 2.57   1 2.57   1 2.57
   3  0.667  0.333  0.755-   1 2.57   1 2.57   1 2.57
 
  LATTYP: Found a hexagonal cell.
 ALAT       =     3.6510002172
 C/A-ratio  =     1.6474937393
  
  Lattice vectors:
  
 A1 = (   3.6510000000,   0.0000000000,   0.0000000000)
 A2 = (  -1.8255000000,   3.1618590000,   0.0000000000)
 A3 = (   0.0000000000,   0.0000000000,   6.0150000000)


Analysis of symmetry for initial positions (statically):
=====================================================================
 Subroutine PRICEL returns:
 Original cell was already a primitive cell.
 

 Routine SETGRP: Setting up the symmetry group for a 
 hexagonal supercell.


 Subroutine GETGRP returns: Found 12 space group operations
 (whereof 12 operations were pure point group operations)
 out of a pool of 24 trial point group operations.


The static configuration has the point symmetry D_3d.


Analysis of symmetry for dynamics (positions and initial velocities):
=====================================================================
 Subroutine PRICEL returns:
 Original cell was already a primitive cell.
 

 Routine SETGRP: Setting up the symmetry group for a 
 hexagonal supercell.


 Subroutine GETGRP returns: Found 12 space group operations
 (whereof 12 operations were pure point group operations)
 out of a pool of 24 trial point group operations.


The dynamic configuration has the point symmetry D_3d.


 Subroutine INISYM returns: Found 12 space group operations
 (whereof 12 operations are pure point group operations),
 and found     1 'primitive' translations

 
 
 KPOINTS: Automatic 6x6x6                         

Automatic generation of k-mesh.
Space group operators:
 irot       det(A)        alpha          n_x          n_y          n_z        tau_x        tau_y        tau_z
    1     1.000000     0.000000     1.000000     0.000000     0.000000     0.000000     0.000000     0.000000
    2    -1.000000     0.000000     1.000000     0.000000     0.000000     0.000000     0.000000     0.000000
    3     1.000000   120.000000     0.000000     0.000000    -1.000000     0.000000     0.000000     0.000000
    4    -1.000000   120.000000     0.000000     0.000000    -1.000000     0.000000     0.000000     0.000000
    5     1.000000   120.000000     0.000000     0.000000     1.000000     0.000000     0.000000     0.000000
    6    -1.000000   120.000000     0.000000     0.000000     1.000000     0.000000     0.000000     0.000000
    7     1.000000   180.000000     1.000000     0.000000     0.000000     0.000000     0.000000     0.000000
    8    -1.000000   180.000000     1.000000     0.000000     0.000000     0.000000     0.000000     0.000000
    9     1.000000   180.000000     0.500000    -0.866025     0.000000     0.000000     0.000000     0.000000
   10    -1.000000   180.000000     0.500000    -0.866025     0.000000     0.000000     0.000000     0.000000
   11     1.000000   180.000000    -0.500000    -0.866025     0.000000     0.000000     0.000000     0.000000
   12    -1.000000   180.000000    -0.500000    -0.866025     0.000000     0.000000     0.000000     0.000000
 
 Subroutine IBZKPT returns following result:
 ===========================================
 
 Found     34 irreducible k-points:
 
 Following reciprocal coordinates:
            Coordinates               Weight
  0.000000  0.000000  0.000000      1.000000
  0.166667 -0.000000  0.000000      6.000000
  0.333333  0.000000  0.000000      6.000000
  0.500000 -0.000000  0.000000      3.000000
  0.166667  0.166667  0.000000      6.000000
  0.333333  0.166667  0.000000     12.000000
  0.333333  0.333333  0.000000      2.000000
  0.000000  0.000000  0.166667      2.000000
  0.166667 -0.000000  0.166667      6.000000
  0.333333  0.000000  0.166667      6.000000
  0.500000 -0.000000  0.166667      6.000000
 -0.333333 -0.000000  0.166667      6.000000
 -0.166667  0.000000  0.166667      6.000000
  0.166667  0.166667  0.166667     12.000000
  0.333333  0.166667  0.166667     12.000000
  0.500000  0.166667  0.166667     12.000000
  0.333333  0.333333  0.166667      4.000000
  0.000000  0.000000  0.333333      2.000000
  0.166667 -0.000000  0.333333      6.000000
  0.333333  0.000000  0.333333      6.000000
  0.500000 -0.000000  0.333333      6.000000
 -0.333333 -0.000000  0.333333      6.000000
 -0.166667  0.000000  0.333333      6.000000
  0.166667  0.166667  0.333333     12.000000
  0.333333  0.166667  0.333333     12.000000
  0.500000  0.166667  0.333333     12.000000
  0.333333  0.333333  0.333333      4.000000
  0.000000  0.000000  0.500000      1.000000
  0.166667 -0.000000  0.500000      6.000000
  0.333333  0.000000  0.500000      6.000000
  0.500000 -0.000000  0.500000      3.000000
  0.166667  0.166667  0.500000      6.000000
  0.333333  0.166667  0.500000     12.000000
  0.333333  0.333333  0.500000      2.000000
 
 Following cartesian coordinates:
            Coordinates               Weight
  0.000000  0.000000  0.000000      1.000000
  0.045650  0.026356  0.000000      6.000000
  0.091299  0.052712  0.000000      6.000000
  0.136949  0.079067  0.000000      3.000000
  0.045650  0.079067  0.000000      6.000000
  0.091299  0.105423  0.000000     12.000000
  0.091299  0.158135  0.000000      2.000000
  0.000000  0.000000  0.027709      2.000000
  0.045650  0.026356  0.027709      6.000000
  0.091299  0.052712  0.027709      6.000000
  0.136949  0.079067  0.027709      6.000000
 -0.091299 -0.052712  0.027709      6.000000
 -0.045650 -0.026356  0.027709      6.000000
  0.045650  0.079067  0.027709     12.000000
  0.091299  0.105423  0.027709     12.000000
  0.136949  0.131779  0.027709     12.000000
  0.091299  0.158135  0.027709      4.000000
  0.000000  0.000000  0.055417      2.000000
  0.045650  0.026356  0.055417      6.000000
  0.091299  0.052712  0.055417      6.000000
  0.136949  0.079067  0.055417      6.000000
 -0.091299 -0.052712  0.055417      6.000000
 -0.045650 -0.026356  0.055417      6.000000
  0.045650  0.079067  0.055417     12.000000
  0.091299  0.105423  0.055417     12.000000
  0.136949  0.131779  0.055417     12.000000
  0.091299  0.158135  0.055417      4.000000
  0.000000  0.000000  0.083126      1.000000
  0.045650  0.026356  0.083126      6.000000
  0.091299  0.052712  0.083126      6.000000
  0.136949  0.079067  0.083126      3.000000
  0.045650  0.079067  0.083126      6.000000
  0.091299  0.105423  0.083126     12.000000
  0.091299  0.158135  0.083126      2.000000
 
 TETIRR: Found    281 inequivalent tetrahedra from     1296
 
 Subroutine IBZKPT_HF returns following result:
 ==============================================
 
 Found    216 k-points in 1st BZ
 the following    216 k-points will be used (e.g. in the exchange kernel)
 Following reciprocal coordinates:   # in IRBZ
  0.000000  0.000000  0.000000    0.00462963   1 t-inv F
  0.166667 -0.000000  0.000000    0.00462963   2 t-inv F
  0.333333  0.000000  0.000000    0.00462963   3 t-inv F
  0.500000 -0.000000  0.000000    0.00462963   4 t-inv F
  0.166667  0.166667  0.000000    0.00462963   5 t-inv F
  0.333333  0.166667  0.000000    0.00462963   6 t-inv F
  0.333333  0.333333  0.000000    0.00462963   7 t-inv F
  0.000000  0.000000  0.166667    0.00462963   8 t-inv F
  0.166667 -0.000000  0.166667    0.00462963   9 t-inv F
  0.333333  0.000000  0.166667    0.00462963  10 t-inv F
  0.500000 -0.000000  0.166667    0.00462963  11 t-inv F
 -0.333333 -0.000000  0.166667    0.00462963  12 t-inv F
 -0.166667  0.000000  0.166667    0.00462963  13 t-inv F
  0.166667  0.166667  0.166667    0.00462963  14 t-inv F
  0.333333  0.166667  0.166667    0.00462963  15 t-inv F
  0.500000  0.166667  0.166667    0.00462963  16 t-inv F
  0.333333  0.333333  0.166667    0.00462963  17 t-inv F
  0.000000  0.000000  0.333333    0.00462963  18 t-inv F
  0.166667 -0.000000  0.333333    0.00462963  19 t-inv F
  0.333333  0.000000  0.333333    0.00462963  20 t-inv F
  0.500000 -0.000000  0.333333    0.00462963  21 t-inv F
 -0.333333 -0.000000  0.333333    0.00462963  22 t-inv F
 -0.166667  0.000000  0.333333    0.00462963  23 t-inv F
  0.166667  0.166667  0.333333    0.00462963  24 t-inv F
  0.333333  0.166667  0.333333    0.00462963  25 t-inv F
  0.500000  0.166667  0.333333    0.00462963  26 t-inv F
  0.333333  0.333333  0.333333    0.00462963  27 t-inv F
  0.000000  0.000000  0.500000    0.00462963  28 t-inv F
  0.166667 -0.000000  0.500000    0.00462963  29 t-inv F
  0.333333  0.000000  0.500000    0.00462963  30 t-inv F
  0.500000 -0.000000  0.500000    0.00462963  31 t-inv F
  0.166667  0.166667  0.500000    0.00462963  32 t-inv F
  0.333333  0.166667  0.500000    0.00462963  33 t-inv F
  0.333333  0.333333  0.500000    0.00462963  34 t-inv F
 -0.166667  0.000000  0.000000    0.00462963   2 t-inv F
 -0.166667  0.166667  0.000000    0.00462963   2 t-inv F
  0.166667 -0.166667  0.000000    0.00462963   2 t-inv F
 -0.000000 -0.166667  0.000000    0.00462963   2 t-inv F
  0.000000  0.166667  0.000000    0.00462963   2 t-inv F
 -0.333333 -0.000000  0.000000    0.00462963   3 t-inv F
 -0.333333  0.333333  0.000000    0.00462963   3 t-inv F
  0.333333 -0.333333  0.000000    0.00462963   3 t-inv F
  0.000000 -0.333333  0.000000    0.00462963   3 t-inv F
 -0.000000  0.333333  0.000000    0.00462963   3 t-inv F
 -0.500000  0.500000  0.000000    0.00462963   4 t-inv F
 -0.000000 -0.500000  0.000000    0.00462963   4 t-inv F
 -0.166667 -0.166667  0.000000    0.00462963   5 t-inv F
 -0.333333  0.166667  0.000000    0.00462963   5 t-inv F
  0.333333 -0.166667  0.000000    0.00462963   5 t-inv F
  0.166667 -0.333333  0.000000    0.00462963   5 t-inv F
 -0.166667  0.333333  0.000000    0.00462963   5 t-inv F
 -0.333333 -0.166667  0.000000    0.00462963   6 t-inv F
 -0.500000  0.333333  0.000000    0.00462963   6 t-inv F
  0.500000 -0.333333  0.000000    0.00462963   6 t-inv F
  0.166667 -0.500000  0.000000    0.00462963   6 t-inv F
 -0.166667  0.500000  0.000000    0.00462963   6 t-inv F
  0.333333 -0.500000  0.000000    0.00462963   6 t-inv F
 -0.333333  0.500000  0.000000    0.00462963   6 t-inv F
 -0.500000  0.166667  0.000000    0.00462963   6 t-inv F
  0.500000 -0.166667  0.000000    0.00462963   6 t-inv F
  0.166667  0.333333  0.000000    0.00462963   6 t-inv F
 -0.166667 -0.333333  0.000000    0.00462963   6 t-inv F
 -0.333333 -0.333333  0.000000    0.00462963   7 t-inv F
  0.000000  0.000000 -0.166667    0.00462963   8 t-inv F
 -0.166667  0.000000 -0.166667    0.00462963   9 t-inv F
 -0.166667  0.166667  0.166667    0.00462963   9 t-inv F
  0.166667 -0.166667 -0.166667    0.00462963   9 t-inv F
 -0.000000 -0.166667  0.166667    0.00462963   9 t-inv F
  0.000000  0.166667 -0.166667    0.00462963   9 t-inv F
 -0.333333 -0.000000 -0.166667    0.00462963  10 t-inv F
 -0.333333  0.333333  0.166667    0.00462963  10 t-inv F
  0.333333 -0.333333 -0.166667    0.00462963  10 t-inv F
  0.000000 -0.333333  0.166667    0.00462963  10 t-inv F
 -0.000000  0.333333 -0.166667    0.00462963  10 t-inv F
 -0.500000  0.000000 -0.166667    0.00462963  11 t-inv F
 -0.500000  0.500000  0.166667    0.00462963  11 t-inv F
  0.500000 -0.500000 -0.166667    0.00462963  11 t-inv F
 -0.000000 -0.500000  0.166667    0.00462963  11 t-inv F
  0.000000  0.500000 -0.166667    0.00462963  11 t-inv F
  0.333333  0.000000 -0.166667    0.00462963  12 t-inv F
  0.333333 -0.333333  0.166667    0.00462963  12 t-inv F
 -0.333333  0.333333 -0.166667    0.00462963  12 t-inv F
 -0.000000  0.333333  0.166667    0.00462963  12 t-inv F
  0.000000 -0.333333 -0.166667    0.00462963  12 t-inv F
  0.166667 -0.000000 -0.166667    0.00462963  13 t-inv F
  0.166667 -0.166667  0.166667    0.00462963  13 t-inv F
 -0.166667  0.166667 -0.166667    0.00462963  13 t-inv F
  0.000000  0.166667  0.166667    0.00462963  13 t-inv F
 -0.000000 -0.166667 -0.166667    0.00462963  13 t-inv F
 -0.166667 -0.166667 -0.166667    0.00462963  14 t-inv F
 -0.333333  0.166667  0.166667    0.00462963  14 t-inv F
  0.333333 -0.166667 -0.166667    0.00462963  14 t-inv F
  0.166667 -0.333333  0.166667    0.00462963  14 t-inv F
 -0.166667  0.333333 -0.166667    0.00462963  14 t-inv F
  0.166667 -0.333333 -0.166667    0.00462963  14 t-inv F
 -0.166667  0.333333  0.166667    0.00462963  14 t-inv F
 -0.333333  0.166667 -0.166667    0.00462963  14 t-inv F
  0.333333 -0.166667  0.166667    0.00462963  14 t-inv F
  0.166667  0.166667 -0.166667    0.00462963  14 t-inv F
 -0.166667 -0.166667  0.166667    0.00462963  14 t-inv F
 -0.333333 -0.166667 -0.166667    0.00462963  15 t-inv F
 -0.500000  0.333333  0.166667    0.00462963  15 t-inv F
  0.500000 -0.333333 -0.166667    0.00462963  15 t-inv F
  0.166667 -0.500000  0.166667    0.00462963  15 t-inv F
 -0.166667  0.500000 -0.166667    0.00462963  15 t-inv F
  0.333333 -0.500000 -0.166667    0.00462963  15 t-inv F
 -0.333333  0.500000  0.166667    0.00462963  15 t-inv F
 -0.500000  0.166667 -0.166667    0.00462963  15 t-inv F
  0.500000 -0.166667  0.166667    0.00462963  15 t-inv F
  0.166667  0.333333 -0.166667    0.00462963  15 t-inv F
 -0.166667 -0.333333  0.166667    0.00462963  15 t-inv F
 -0.500000 -0.166667 -0.166667    0.00462963  16 t-inv F
 -0.666667  0.500000  0.166667    0.00462963  16 t-inv F
  0.666667 -0.500000 -0.166667    0.00462963  16 t-inv F
  0.166667 -0.666667  0.166667    0.00462963  16 t-inv F
 -0.166667  0.666667 -0.166667    0.00462963  16 t-inv F
  0.500000 -0.666667 -0.166667    0.00462963  16 t-inv F
 -0.500000  0.666667  0.166667    0.00462963  16 t-inv F
 -0.666667  0.166667 -0.166667    0.00462963  16 t-inv F
  0.666667 -0.166667  0.166667    0.00462963  16 t-inv F
  0.166667  0.500000 -0.166667    0.00462963  16 t-inv F
 -0.166667 -0.500000  0.166667    0.00462963  16 t-inv F
 -0.333333 -0.333333 -0.166667    0.00462963  17 t-inv F
  0.333333 -0.666667 -0.166667    0.00462963  17 t-inv F
 -0.333333  0.666667  0.166667    0.00462963  17 t-inv F
  0.000000  0.000000 -0.333333    0.00462963  18 t-inv F
 -0.166667  0.000000 -0.333333    0.00462963  19 t-inv F
 -0.166667  0.166667  0.333333    0.00462963  19 t-inv F
  0.166667 -0.166667 -0.333333    0.00462963  19 t-inv F
 -0.000000 -0.166667  0.333333    0.00462963  19 t-inv F
  0.000000  0.166667 -0.333333    0.00462963  19 t-inv F
 -0.333333 -0.000000 -0.333333    0.00462963  20 t-inv F
 -0.333333  0.333333  0.333333    0.00462963  20 t-inv F
  0.333333 -0.333333 -0.333333    0.00462963  20 t-inv F
  0.000000 -0.333333  0.333333    0.00462963  20 t-inv F
 -0.000000  0.333333 -0.333333    0.00462963  20 t-inv F
 -0.500000  0.000000 -0.333333    0.00462963  21 t-inv F
 -0.500000  0.500000  0.333333    0.00462963  21 t-inv F
  0.500000 -0.500000 -0.333333    0.00462963  21 t-inv F
 -0.000000 -0.500000  0.333333    0.00462963  21 t-inv F
  0.000000  0.500000 -0.333333    0.00462963  21 t-inv F
  0.333333  0.000000 -0.333333    0.00462963  22 t-inv F
  0.333333 -0.333333  0.333333    0.00462963  22 t-inv F
 -0.333333  0.333333 -0.333333    0.00462963  22 t-inv F
 -0.000000  0.333333  0.333333    0.00462963  22 t-inv F
  0.000000 -0.333333 -0.333333    0.00462963  22 t-inv F
  0.166667 -0.000000 -0.333333    0.00462963  23 t-inv F
  0.166667 -0.166667  0.333333    0.00462963  23 t-inv F
 -0.166667  0.166667 -0.333333    0.00462963  23 t-inv F
  0.000000  0.166667  0.333333    0.00462963  23 t-inv F
 -0.000000 -0.166667 -0.333333    0.00462963  23 t-inv F
 -0.166667 -0.166667 -0.333333    0.00462963  24 t-inv F
 -0.333333  0.166667  0.333333    0.00462963  24 t-inv F
  0.333333 -0.166667 -0.333333    0.00462963  24 t-inv F
  0.166667 -0.333333  0.333333    0.00462963  24 t-inv F
 -0.166667  0.333333 -0.333333    0.00462963  24 t-inv F
  0.166667 -0.333333 -0.333333    0.00462963  24 t-inv F
 -0.166667  0.333333  0.333333    0.00462963  24 t-inv F
 -0.333333  0.166667 -0.333333    0.00462963  24 t-inv F
  0.333333 -0.166667  0.333333    0.00462963  24 t-inv F
  0.166667  0.166667 -0.333333    0.00462963  24 t-inv F
 -0.166667 -0.166667  0.333333    0.00462963  24 t-inv F
 -0.333333 -0.166667 -0.333333    0.00462963  25 t-inv F
 -0.500000  0.333333  0.333333    0.00462963  25 t-inv F
  0.500000 -0.333333 -0.333333    0.00462963  25 t-inv F
  0.166667 -0.500000  0.333333    0.00462963  25 t-inv F
 -0.166667  0.500000 -0.333333    0.00462963  25 t-inv F
  0.333333 -0.500000 -0.333333    0.00462963  25 t-inv F
 -0.333333  0.500000  0.333333    0.00462963  25 t-inv F
 -0.500000  0.166667 -0.333333    0.00462963  25 t-inv F
  0.500000 -0.166667  0.333333    0.00462963  25 t-inv F
  0.166667  0.333333 -0.333333    0.00462963  25 t-inv F
 -0.166667 -0.333333  0.333333    0.00462963  25 t-inv F
 -0.500000 -0.166667 -0.333333    0.00462963  26 t-inv F
 -0.666667  0.500000  0.333333    0.00462963  26 t-inv F
  0.666667 -0.500000 -0.333333    0.00462963  26 t-inv F
  0.166667 -0.666667  0.333333    0.00462963  26 t-inv F
 -0.166667  0.666667 -0.333333    0.00462963  26 t-inv F
  0.500000 -0.666667 -0.333333    0.00462963  26 t-inv F
 -0.500000  0.666667  0.333333    0.00462963  26 t-inv F
 -0.666667  0.166667 -0.333333    0.00462963  26 t-inv F
  0.666667 -0.166667  0.333333    0.00462963  26 t-inv F
  0.166667  0.500000 -0.333333    0.00462963  26 t-inv F
 -0.166667 -0.500000  0.333333    0.00462963  26 t-inv F
 -0.333333 -0.333333 -0.333333    0.00462963  27 t-inv F
  0.333333 -0.666667 -0.333333    0.00462963  27 t-inv F
 -0.333333  0.666667  0.333333    0.00462963  27 t-inv F
 -0.166667  0.000000 -0.500000    0.00462963  29 t-inv F
 -0.166667  0.166667  0.500000    0.00462963  29 t-inv F
  0.166667 -0.166667 -0.500000    0.00462963  29 t-inv F
 -0.000000 -0.166667  0.500000    0.00462963  29 t-inv F
  0.000000  0.166667 -0.500000    0.00462963  29 t-inv F
 -0.333333 -0.000000 -0.500000    0.00462963  30 t-inv F
 -0.333333  0.333333  0.500000    0.00462963  30 t-inv F
  0.333333 -0.333333 -0.500000    0.00462963  30 t-inv F
  0.000000 -0.333333  0.500000    0.00462963  30 t-inv F
 -0.000000  0.333333 -0.500000    0.00462963  30 t-inv F
 -0.500000  0.500000  0.500000    0.00462963  31 t-inv F
 -0.000000 -0.500000  0.500000    0.00462963  31 t-inv F
 -0.166667 -0.166667 -0.500000    0.00462963  32 t-inv F
 -0.333333  0.166667  0.500000    0.00462963  32 t-inv F
  0.333333 -0.166667 -0.500000    0.00462963  32 t-inv F
  0.166667 -0.333333  0.500000    0.00462963  32 t-inv F
 -0.166667  0.333333 -0.500000    0.00462963  32 t-inv F
 -0.333333 -0.166667 -0.500000    0.00462963  33 t-inv F
 -0.500000  0.333333  0.500000    0.00462963  33 t-inv F
  0.500000 -0.333333 -0.500000    0.00462963  33 t-inv F
  0.166667 -0.500000  0.500000    0.00462963  33 t-inv F
 -0.166667  0.500000 -0.500000    0.00462963  33 t-inv F
  0.333333 -0.500000 -0.500000    0.00462963  33 t-inv F
 -0.333333  0.500000  0.500000    0.00462963  33 t-inv F
 -0.500000  0.166667 -0.500000    0.00462963  33 t-inv F
  0.500000 -0.166667  0.500000    0.00462963  33 t-inv F
  0.166667  0.333333 -0.500000    0.00462963  33 t-inv F
 -0.166667 -0.333333  0.500000    0.00462963  33 t-inv F
 -0.333333 -0.333333 -0.500000    0.00462963  34 t-inv F


--------------------------------------------------------------------------------------------------------




 Dimension of arrays:
   k-points           NKPTS =     34   k-points in BZ     NKDIM =    216   number of bands    NBANDS=     64
   number of dos      NEDOS =    301   number of ions     NIONS =      3
   non local maximal  LDIM  =      6   non local SUM 2l+1 LMDIM =     18
   total plane-waves  NPLWV =  23040
   max r-space proj   IRMAX =      1   max aug-charges    IRDMAX=  15016
   dimension x,y,z NGX =    24 NGY =   24 NGZ =   40
   dimension x,y,z NGXF=    48 NGYF=   48 NGZF=   80
   support grid    NGXF=    48 NGYF=   48 NGZF=   80
   ions per type =               1   2
 NGX,Y,Z   is equivalent  to a cutoff of  10.93, 10.93, 11.06 a.u.
 NGXF,Y,Z  is equivalent  to a cutoff of  21.86, 21.86, 22.11 a.u.


 I would recommend the setting:
   dimension x,y,z NGX =    24 NGY =   24 NGZ =   39
 SYSTEM =  SnS2                                    
 POSCAR =  SnS2                                    

 Startparameter for this run:
   NWRITE =      2    write-flag & timer
   PREC   = accura    normal or accurate (medium, high low for compatibility)
   ISTART =      1    job   : 0-new  1-cont  2-samecut
   ICHARG =      0    charge: 1-file 2-atom 10-const
   ISPIN  =      1    spin polarized calculation?
   LNONCOLLINEAR =      F non collinear calculations
   LSORBIT =      F    spin-orbit coupling
   INIWAV =      1    electr: 0-lowe 1-rand  2-diag
   LASPH  =      T    aspherical Exc in radial PAW
   METAGGA=      F    non-selfconsistent MetaGGA calc.

 Electronic Relaxation 1
   ENCUT  =  400.0 eV  29.40 Ry    5.42 a.u.   5.95  5.95  9.81*2*pi/ulx,y,z
   ENINI  =  400.0     initial cutoff
   ENAUG  =  439.8 eV  augmentation charge cutoff
   NELM   =      4;   NELMIN=  2; NELMDL=  0     # of ELM steps 
   EDIFF  = 0.1E-07   stopping-criterion for ELM
   LREAL  =      F    real-space projection
   NLSPLINE    = F    spline interpolate recip. space projectors
   LCOMPAT=      F    compatible to vasp.4.4
   GGA_COMPAT  = T    GGA compatible to vasp.4.4-vasp.4.6
   LMAXPAW     = -100 max onsite density
   LMAXMIX     =    2 max onsite mixed and CHGCAR
   VOSKOWN=      0    Vosko Wilk Nusair interpolation
   ROPT   =    0.00000   0.00000
 Ionic relaxation
   EDIFFG = 0.1E-06   stopping-criterion for IOM
   NSW    =      0    number of steps for IOM
   NBLOCK =      1;   KBLOCK =      1    inner block; outer block 
   IBRION =     -1    ionic relax: 0-MD 1-quasi-New 2-CG
   NFREE  =      0    steps in history (QN), initial steepest desc. (CG)
   ISIF   =      2    stress and relaxation
   IWAVPR =     10    prediction:  0-non 1-charg 2-wave 3-comb
   ISYM   =      3    0-nonsym 1-usesym 2-fastsym
   LCORR  =      T    Harris-Foulkes like correction to forces

   POTIM  = 0.5000    time-step for ionic-motion
   TEIN   =    0.0    initial temperature
   TEBEG  =    0.0;   TEEND  =   0.0 temperature during run
   SMASS  =  -3.00    Nose mass-parameter (am)
   estimated Nose-frequenzy (Omega)   =  0.10E-29 period in steps =****** mass=  -0.305E-27a.u.
   SCALEE = 1.0000    scale energy and forces
   NPACO  =    256;   APACO  = 16.0  distance and # of slots for P.C.
   PSTRESS=    0.0 pullay stress

  Mass of Ions in am
   POMASS = 118.71 32.07
  Ionic Valenz
   ZVAL   =  14.00  6.00
  Atomic Wigner-Seitz radii
   RWIGS  =  -1.00 -1.00
  virtual crystal weights 
   VCA    =   1.00  1.00
   NELECT =      26.0000    total number of electrons
   NUPDOWN=      -1.0000    fix difference up-down

 DOS related values:
   EMIN   =  10.00;   EMAX   =-10.00  energy-range for DOS
   EFERMI =   0.00
   ISMEAR =    -5;   SIGMA  =   0.20  broadening in eV -4-tet -1-fermi 0-gaus

 Electronic relaxation 2 (details)
   IALGO  =      4    algorithm
   LDIAG  =      T    sub-space diagonalisation (order eigenvalues)
   LSUBROT=      F    optimize rotation matrix (better conditioning)
   TURBO    =      0    0=normal 1=particle mesh
   IRESTART =      0    0=no restart 2=restart with 2 vectors
   NREBOOT  =      0    no. of reboots
   NMIN     =      0    reboot dimension
   EREF     =   0.00    reference energy to select bands
   IMIX   =      1    mixing-type and parameters
     AMIX     =   0.40;   BMIX     =  1.00
     AMIX_MAG =   1.60;   BMIX_MAG =  1.00
     AMIN     =   0.10
     WC   =   100.;   INIMIX=   1;  MIXPRE=   1;  MAXMIX= -45

 Intra band minimization:
   WEIMIN = 0.0000     energy-eigenvalue tresh-hold
   EBREAK =  0.39E-10  absolut break condition
   DEPER  =   0.30     relativ break condition  

   TIME   =   0.40     timestep for ELM

  volume/ion in A,a.u.               =      23.15       156.19
  Fermi-wavevector in a.u.,A,eV,Ry     =   1.179965  2.229811 18.943643  1.392318
  Thomas-Fermi vector in A             =   2.316267
 
 Write flags
   LWAVE  =      T    write WAVECAR
   LCHARG =      T    write CHGCAR
   LVTOT  =      F    write LOCPOT, total local potential
   LVHAR  =      F    write LOCPOT, Hartree potential only
   LELF   =      F    write electronic localiz. function (ELF)
   LORBIT =      0    0 simple, 1 ext, 2 COOP (PROOUT)


 Dipole corrections
   LMONO  =      F    monopole corrections only (constant potential shift)
   LDIPOL =      F    correct potential (dipole corrections)
   IDIPOL =      0    1-x, 2-y, 3-z, 4-all directions 
   EPSILON=  1.0000000 bulk dielectric constant

 Exchange correlation treatment:
   GGA     =    PE    GGA type
   LEXCH   =     8    internal setting for exchange type
   VOSKOWN=      0    Vosko Wilk Nusair interpolation
   EXXOEP  =     0    0=HF, 1=EXX-LHF (local Hartree Fock) 2=EXX OEP
   LHFCALC =     T    Hartree Fock is set to
   LSYMGRAD=     F    symmetrize gradient (conserves proper symmetry)
   PRECFOCK=normal    Normal, Fast or Accurate (Low or Medium for compatibility)
   LRHFCALC=     F    long range Hartree Fock
   LRSCOR  =     F    long range correlation only (use DFT for short range part)
   LTHOMAS =     F    Thomas Fermi screening in HF
   LMODELHF=     F    short range full HF, long range fraction AEXX
   ENCUT4O =  -1.0   cutoff for four orbital integrals eV
   LMAXFOCK=     4    L truncation for augmentation on plane wave grid
   LMAXFOCKAE=   4    L truncation for all-electron charge restoration on plane wave grid
   NMAXFOCKAE=   1    number of basis functions for all-electron charge restoration
   LFOCKAEDFT=     F  apply the AE augmentation even for DFT
   NKREDX  =     1    reduce k-point grid by
   NKREDY  =     1    reduce k-point grid by
   NKREDZ  =     1    reduce k-point grid by
   SHIFTRED=     F    shift reduced grid of Gamma
   HFKIDENT=     F    idential grid for each k-point
   ODDONLY =     F    use only odd q-grid points
   EVENONLY=     F    use only even q-grid points
   HFALPHA =   -1.0000 decay constant for conv. correction
   MCALPHA =    0.0000 extent of test-charge in conv. correction in multipole expansion
   AEXX    =    1.0000 exact exchange contribution
   HFSCREEN=    0.0000 screening length (either q_TF or 0.3 A-1)
   HFSCREENC=   0.0000 screening length for correlation (either q_TF or 0.3 A-1)
   HFRCUT  =    0.0000 spherical cutoff for potential kernel
   ALDAX   =    0.0000 LDA exchange part
   AGGAX   =    0.0000 GGA exchange part
   ALDAC   =    0.0000 LDA correlation
   AGGAC   =    0.0000 GGA correlation
   NBANDSGWLOW=     1    first orbital included in HF term
   ENCUTFOCK=  -1.0 apply spherical cutoff to Coloumb kernel
 Linear response parameters
   LEPSILON=     F    determine dielectric tensor
   LRPA    =     F    only Hartree local field effects (RPA)
   LNABLA  =     F    use nabla operator in PAW spheres
   LVEL    =     F    velocity operator in full k-point grid
   LINTERFAST=   F  fast interpolation
   KINTER  =     0    interpolate to denser k-point grid
   CSHIFT  =0.1000    complex shift for real part using Kramers Kronig
   OMEGAMAX=  -1.0    maximum frequency
   DEG_THRESHOLD= 0.2000000E-02 threshold for treating states as degnerate
   RTIME   =    0.100 relaxation time in fs

 Orbital magnetization related:
   ORBITALMAG=     F  switch on orbital magnetization
   LCHIMAG   =     F  perturbation theory with respect to B field
   DQ        =  0.001000  dq finite difference perturbation B field

 Response functions by sum over occupied states:
   ALGO    =QPGW       execute GW part
   LFXC    =     F    include DFT xc kernel in TD-HF and W
   LADDER  =     F    particle hole ladder diagrams for BSE/TD-HF and W (Nano-quanta)
   LHARTREE=     T    include Hartree terms (bubbles-RPA) in BSE/TD-HF
   IBSE    =     0    BSE modus: 0 exact, 1 time-evolution (store matrix), 10 time-evolution (implicit)
   KPOINT  =    -1   0   0   0    k-point index at which BSE equation is solved (and G at which response is eval.)
   LTRIPLET=     F    triplet instead of singlet excitation (BSE only)
   LRSRPA  =     F    range separated RPA (total - short) in ACFDT
   LTCTE   =     F    use test-charge test-electron dielectric function
   LTETE   =     F    use test-electron test-electron dielectric function
   LFXCEPS =     F    determine f_xc=epsilon-1/Xi Sharma and Gross kernel
   LFXHEG  =     F    model exchange using f_x(G,k_F) from free electron gas
   NATURALO=     0    0 natural orbitals, 1 only virtual, 2 only occupied-virtual rotation
   L2ORDER =     F    2nd order terms only
   LUSEW   =     F    use screened W from WXXXX.tmp files instead of (screened) HF kernel
   ENCUTGW = 266.7    cutoff for response function in eV
   ENCUTGWSOFT =  -2.0 soft cutoff for Coulomb kernel in GW response function in eV
   ENCUTLF =  -1.0    cutoff for local field effects
   LMAXMP2 =    -1    maximum L for one center terms
   SCISSOR =   0.0    scissor correction
   NOMEGA  =    50    number of frequencies
   NOMEGAR =    50    number of frequencies along real axis
   NBANDSGW=    -1    number of bands for which selfenergy shift is calculated
   NBANDSGWLOW=     1 lowest band included in GW (to exclude core correlation)
   NBANDSO =    -1    number of bands for electron-hole treatment (occupied)
   NBANDSV =    -1    number of bands for electron-hole treatment (virtual)
   NELM    =     4    number of iterations in solving QP/BSE equation
   NELMHF  =     1    number of iterations in the inner HF iteration
   DIM     =     3    dimensionality of system (0=0D molecules, 3=3D)
   ANTIRES =     0    antiresonant part (0) no TDA (1) w=0 exact (2) accurate
   OMEGAMAX= -30.0    maximum frequency
   OMEGAMIN= -30.000    minimum frequency
   OMEGATL =-200.0    maximum frequency of tail
   OMEGAGRID=     0    grid type (0 default)
   CSHIFT  =-0.100    complex shift used in evaluation of response functions
   SELFENERGY=   F    calculate selfenergy instead of QP shifts
   LSPECTRAL =   T    use spectral functions                   
   LSPECTRALGW=   F   use spectral functions to calculate int dz G(w-z) W(z) (more accurate)
   LSINGLES  =   F   calculate the singles contribution to the correlation energy
   LFERMIGW  =   F   update Fermi-energy in the Greens function

   ODDONLYGW =   F    avoid all even points for polarizability 
   EVENONLYGW=   F    avoid all odd  points for polarizability 
   NKREDLFX  =   1   NKREDLFY  =   1   NKREDLFZ  =   1

   TELESCOPE =   0   use telescope k-point sampling
   TAUPAR    =   1   number of TAU groups used in imaginary time calculation
   OMEGAPAR  =  -1   number of OMEGA groups used in imaginary frequency calculation
   MAXITERFT   =  30    max iterations in remez



--------------------------------------------------------------------------------------------------------


 Static calculation
 charge density and potential will be updated during run
 non-spin polarized calculation
 Subrot: only subspace diagonalization (rotation)
    band-by band algorithm
 perform sub-space diagonalisation
    before iterative eigenvector-optimisation
 Kerker-like  mixing scheme
 using additional bands           51
 reciprocal scheme for non local part
 use partial core corrections
 calculate Harris-corrections to forces 
   (improved forces if not selfconsistent)
 use gradient corrections 
 use of overlap-Matrix (Vanderbilt PP)
 Fermi weights with tetrahedron method with Bloechl corrections


--------------------------------------------------------------------------------------------------------


  energy-cutoff  :      400.00
  volume of cell :       69.44
      direct lattice vectors                 reciprocal lattice vectors
     3.651000000  0.000000000  0.000000000     0.273897562  0.158134819  0.000000000
    -1.825500000  3.161859000  0.000000000     0.000000000  0.316269638  0.000000000
     0.000000000  0.000000000  6.015000000     0.000000000  0.000000000  0.166251039

  length of vectors
     3.651000000  3.651000217  6.015000000     0.316269656  0.316269638  0.166251039


 
 old parameters found on file WAVECAR:
  energy-cutoff  :      400.00
  volume of cell :       69.44
      direct lattice vectors                 reciprocal lattice vectors
     3.651000000  0.000000000  0.000000000     0.273897562  0.158134819  0.000000000
    -1.825500000  3.161859000  0.000000000     0.000000000  0.316269638  0.000000000
     0.000000000  0.000000000  6.015000000     0.000000000  0.000000000  0.166251039

  length of vectors

 
 k-points in units of 2pi/SCALE and weight: Automatic 6x6x6                         
   0.00000000  0.00000000  0.00000000       0.005
   0.04564959  0.02635580  0.00000000       0.028
   0.09129919  0.05271161  0.00000000       0.028
   0.13694878  0.07906741  0.00000000       0.014
   0.04564959  0.07906741  0.00000000       0.028
   0.09129919  0.10542321  0.00000000       0.056
   0.09129919  0.15813482  0.00000000       0.009
   0.00000000  0.00000000  0.02770851       0.009
   0.04564959  0.02635580  0.02770851       0.028
   0.09129919  0.05271161  0.02770851       0.028
   0.13694878  0.07906741  0.02770851       0.028
  -0.09129919 -0.05271161  0.02770851       0.028
  -0.04564959 -0.02635580  0.02770851       0.028
   0.04564959  0.07906741  0.02770851       0.056
   0.09129919  0.10542321  0.02770851       0.056
   0.13694878  0.13177902  0.02770851       0.056
   0.09129919  0.15813482  0.02770851       0.019
   0.00000000  0.00000000  0.05541701       0.009
   0.04564959  0.02635580  0.05541701       0.028
   0.09129919  0.05271161  0.05541701       0.028
   0.13694878  0.07906741  0.05541701       0.028
  -0.09129919 -0.05271161  0.05541701       0.028
  -0.04564959 -0.02635580  0.05541701       0.028
   0.04564959  0.07906741  0.05541701       0.056
   0.09129919  0.10542321  0.05541701       0.056
   0.13694878  0.13177902  0.05541701       0.056
   0.09129919  0.15813482  0.05541701       0.019
   0.00000000  0.00000000  0.08312552       0.005
   0.04564959  0.02635580  0.08312552       0.028
   0.09129919  0.05271161  0.08312552       0.028
   0.13694878  0.07906741  0.08312552       0.014
   0.04564959  0.07906741  0.08312552       0.028
   0.09129919  0.10542321  0.08312552       0.056
   0.09129919  0.15813482  0.08312552       0.009
 
 k-points in reciprocal lattice and weights: Automatic 6x6x6                         
   0.00000000  0.00000000  0.00000000       0.005
   0.16666667 -0.00000000  0.00000000       0.028
   0.33333333  0.00000000  0.00000000       0.028
   0.50000000 -0.00000000  0.00000000       0.014
   0.16666667  0.16666667  0.00000000       0.028
   0.33333333  0.16666667  0.00000000       0.056
   0.33333333  0.33333333  0.00000000       0.009
   0.00000000  0.00000000  0.16666667       0.009
   0.16666667 -0.00000000  0.16666667       0.028
   0.33333333  0.00000000  0.16666667       0.028
   0.50000000 -0.00000000  0.16666667       0.028
  -0.33333333 -0.00000000  0.16666667       0.028
  -0.16666667  0.00000000  0.16666667       0.028
   0.16666667  0.16666667  0.16666667       0.056
   0.33333333  0.16666667  0.16666667       0.056
   0.50000000  0.16666667  0.16666667       0.056
   0.33333333  0.33333333  0.16666667       0.019
   0.00000000  0.00000000  0.33333333       0.009
   0.16666667 -0.00000000  0.33333333       0.028
   0.33333333  0.00000000  0.33333333       0.028
   0.50000000 -0.00000000  0.33333333       0.028
  -0.33333333 -0.00000000  0.33333333       0.028
  -0.16666667  0.00000000  0.33333333       0.028
   0.16666667  0.16666667  0.33333333       0.056
   0.33333333  0.16666667  0.33333333       0.056
   0.50000000  0.16666667  0.33333333       0.056
   0.33333333  0.33333333  0.33333333       0.019
   0.00000000  0.00000000  0.50000000       0.005
   0.16666667 -0.00000000  0.50000000       0.028
   0.33333333  0.00000000  0.50000000       0.028
   0.50000000 -0.00000000  0.50000000       0.014
   0.16666667  0.16666667  0.50000000       0.028
   0.33333333  0.16666667  0.50000000       0.056
   0.33333333  0.33333333  0.50000000       0.009
 
 position of ions in fractional coordinates (direct lattice) 
   0.00000000  0.00000000  0.00000000
   0.33333300  0.66666600  0.24520076
   0.66666600  0.33333300  0.75479994
 
 position of ions in cartesian coordinates  (Angst):
   0.00000000  0.00000000  0.00000000
   0.00000000  2.10790389  1.47488259
   1.82549817  1.05395195  4.54012162
 


--------------------------------------------------------------------------------------------------------


 k-point  1 :   0.0000 0.0000 0.0000  plane waves:    1273
 k-point  2 :   0.1667-0.0000 0.0000  plane waves:    1248
 k-point  3 :   0.3333 0.0000 0.0000  plane waves:    1266
 k-point  4 :   0.5000-0.0000 0.0000  plane waves:    1244
 k-point  5 :   0.1667 0.1667 0.0000  plane waves:    1266
 k-point  6 :   0.3333 0.1667 0.0000  plane waves:    1262
 k-point  7 :   0.3333 0.3333 0.0000  plane waves:    1254
 k-point  8 :   0.0000 0.0000 0.1667  plane waves:    1261
 k-point  9 :   0.1667-0.0000 0.1667  plane waves:    1251
 k-point 10 :   0.3333 0.0000 0.1667  plane waves:    1259
 k-point 11 :   0.5000-0.0000 0.1667  plane waves:    1264
 k-point 12 :  -0.3333-0.0000 0.1667  plane waves:    1259
 k-point 13 :  -0.1667 0.0000 0.1667  plane waves:    1251
 k-point 14 :   0.1667 0.1667 0.1667  plane waves:    1262
 k-point 15 :   0.3333 0.1667 0.1667  plane waves:    1265
 k-point 16 :   0.5000 0.1667 0.1667  plane waves:    1265
 k-point 17 :   0.3333 0.3333 0.1667  plane waves:    1266
 k-point 18 :   0.0000 0.0000 0.3333  plane waves:    1232
 k-point 19 :   0.1667-0.0000 0.3333  plane waves:    1247
 k-point 20 :   0.3333 0.0000 0.3333  plane waves:    1257
 k-point 21 :   0.5000-0.0000 0.3333  plane waves:    1274
 k-point 22 :  -0.3333-0.0000 0.3333  plane waves:    1257
 k-point 23 :  -0.1667 0.0000 0.3333  plane waves:    1247
 k-point 24 :   0.1667 0.1667 0.3333  plane waves:    1255
 k-point 25 :   0.3333 0.1667 0.3333  plane waves:    1271
 k-point 26 :   0.5000 0.1667 0.3333  plane waves:    1271
 k-point 27 :   0.3333 0.3333 0.3333  plane waves:    1284
 k-point 28 :   0.0000 0.0000 0.5000  plane waves:    1208
 k-point 29 :   0.1667-0.0000 0.5000  plane waves:    1256
 k-point 30 :   0.3333 0.0000 0.5000  plane waves:    1260
 k-point 31 :   0.5000-0.0000 0.5000  plane waves:    1260
 k-point 32 :   0.1667 0.1667 0.5000  plane waves:    1264
 k-point 33 :   0.3333 0.1667 0.5000  plane waves:    1264
 k-point 34 :   0.3333 0.3333 0.5000  plane waves:    1290

 maximum and minimum number of plane-waves per node :      1290     1208

 maximum number of plane-waves:      1290
 maximum index in each direction: 
   IXMAX=    6   IYMAX=    5   IZMAX=    9
   IXMIN=   -6   IYMIN=   -6   IZMIN=  -10

 WARNING: aliasing errors must be expected set NGX to  26 to avoid them
 NGY is ok and might be reduce to  24
 NGZ is ok and might be reduce to  40
 aliasing errors are usually negligible using standard VASP settings
 and one can safely disregard these warnings

 serial   3D FFT for wavefunctions
 parallel 3D FFT for charge:
    minimum data exchange during FFTs selected (reduces bandwidth)


 FFT grid for exact exchange (Hartree Fock) 
  NGX = 18; NGY = 18; NGZ = 30

 
 Radii for the augmentation spheres in the non-local exchange
 for species   1 augmentation radius   1.089 (default was   1.089)
 error exchange integrals (PW-AE in eV) (mean, max) 0.790 5.267 density error[0,qmax] 0.0147
 for species   2 augmentation radius   0.970 (default was   0.970)
 error exchange integrals (PW-AE in eV) (mean, max) 0.052 0.429 density error[0,qmax] 0.0056
 Maximum index for augmentation-charges in exchange          767
  SETUP_FOCK is finished

 total amount of memory used by VASP on root node    60364. kBytes
========================================================================

   base      :      30000. kBytes
   nonl-proj :      12713. kBytes
   fftplans  :       1680. kBytes
   grid      :       3557. kBytes
   one-center:         46. kBytes
   HF        :        259. kBytes
   nonlr-proj:        551. kBytes
   wavefun   :      11558. kBytes
 
     INWAV:  cpu time    0.1960: real time    0.1968
 charge density for first step will be calculated from the start-wavefunctions


--------------------------------------------------------------------------------------------------------


 Maximum index for augmentation-charges         3585 (set IRDMAX)


--------------------------------------------------------------------------------------------------------


 initial charge from wavefunction
 FEWALD executed in parallel
    FEWALD:  cpu time    0.0000: real time    0.0001

 The Fermi energy was updated, please check that it is located mid-gap
 values below the HOMO (VB) or above the LUMO (CB) will cause erroneous energies
 E-fermi :   5.1110

 Response functions by sum over occupied states:
 ===============================================
   NOMEGA  =    50    number of frequencies
   NOMEGAR =    50    number of frequencies along real axis
   OMEGAMAX=  16.12   maximum frequency
   OMEGAMIN=   0.76   minimum frequency
   OMEGATL = 186.30   maximum frequency of tail
   CSHIFT  =  0.419   complex shift used in evaluation of response functions


 Energies w= 
 ============
   0.000   0.000   0.640   0.000   1.278   0.000   1.912   0.000   2.538   0.000
   3.156   0.000   3.765   0.000   4.364   0.000   4.952   0.000   5.529   0.000
   6.096   0.000   6.655   0.000   7.205   0.000   7.748   0.000   8.285   0.000
   8.819   0.000   9.350   0.000   9.881   0.000  10.414   0.000  10.951   0.000
  11.494   0.000  12.045   0.000  12.609   0.000  13.187   0.000  13.782   0.000
  14.400   0.000  15.044   0.000  15.719   0.000  16.431   0.000  17.186   0.000
  17.994   0.000  18.863   0.000  19.805   0.000  20.834   0.000  21.968   0.000
  23.230   0.000  24.647   0.000  26.257   0.000  28.107   0.000  30.262   0.000
  32.811   0.000  35.881   0.000  39.652   0.000  44.403   0.000  50.572   0.000
  58.903   0.000  70.755   0.000  88.920   0.000 120.170   0.000 186.303   0.000
 

IMPORTANT INFORMATION: All symmetrisations will be switched off!
NOSYMM: (Re-)initialisation of all symmetry stuff for point group C_1.

 
 KPOINTS: Automatic 6x6x6                         

Automatic generation of k-mesh.
Space group operators:
 irot       det(A)        alpha          n_x          n_y          n_z        tau_x        tau_y        tau_z
    1     1.000000     0.000000     1.000000     0.000000     0.000000     0.000000     0.000000     0.000000
 
 Subroutine IBZKPT returns following result:
 ===========================================
 
 Found    216 irreducible k-points:
 
 Following reciprocal coordinates:
            Coordinates               Weight
  0.000000  0.000000  0.000000      1.000000
  0.166667 -0.000000  0.000000      1.000000
  0.333333  0.000000  0.000000      1.000000
  0.500000 -0.000000  0.000000      1.000000
 -0.333333 -0.000000  0.000000      1.000000
 -0.166667  0.000000  0.000000      1.000000
  0.000000  0.166667  0.000000      1.000000
  0.166667  0.166667  0.000000      1.000000
  0.333333  0.166667  0.000000      1.000000
  0.500000  0.166667  0.000000      1.000000
 -0.333333  0.166667  0.000000      1.000000
 -0.166667  0.166667  0.000000      1.000000
  0.000000  0.333333  0.000000      1.000000
  0.166667  0.333333  0.000000      1.000000
  0.333333  0.333333  0.000000      1.000000
  0.500000  0.333333  0.000000      1.000000
 -0.333333  0.333333  0.000000      1.000000
 -0.166667  0.333333  0.000000      1.000000
  0.000000  0.500000  0.000000      1.000000
  0.166667  0.500000  0.000000      1.000000
  0.333333  0.500000  0.000000      1.000000
  0.500000  0.500000  0.000000      1.000000
 -0.333333  0.500000  0.000000      1.000000
 -0.166667  0.500000  0.000000      1.000000
  0.000000 -0.333333  0.000000      1.000000
  0.166667 -0.333333  0.000000      1.000000
  0.333333 -0.333333  0.000000      1.000000
  0.500000 -0.333333  0.000000      1.000000
 -0.333333 -0.333333  0.000000      1.000000
 -0.166667 -0.333333  0.000000      1.000000
  0.000000 -0.166667  0.000000      1.000000
  0.166667 -0.166667  0.000000      1.000000
  0.333333 -0.166667  0.000000      1.000000
  0.500000 -0.166667  0.000000      1.000000
 -0.333333 -0.166667  0.000000      1.000000
 -0.166667 -0.166667  0.000000      1.000000
  0.000000  0.000000  0.166667      1.000000
  0.166667 -0.000000  0.166667      1.000000
  0.333333  0.000000  0.166667      1.000000
  0.500000 -0.000000  0.166667      1.000000
 -0.333333 -0.000000  0.166667      1.000000
 -0.166667  0.000000  0.166667      1.000000
  0.000000  0.166667  0.166667      1.000000
  0.166667  0.166667  0.166667      1.000000
  0.333333  0.166667  0.166667      1.000000
  0.500000  0.166667  0.166667      1.000000
 -0.333333  0.166667  0.166667      1.000000
 -0.166667  0.166667  0.166667      1.000000
  0.000000  0.333333  0.166667      1.000000
  0.166667  0.333333  0.166667      1.000000
  0.333333  0.333333  0.166667      1.000000
  0.500000  0.333333  0.166667      1.000000
 -0.333333  0.333333  0.166667      1.000000
 -0.166667  0.333333  0.166667      1.000000
  0.000000  0.500000  0.166667      1.000000
  0.166667  0.500000  0.166667      1.000000
  0.333333  0.500000  0.166667      1.000000
  0.500000  0.500000  0.166667      1.000000
 -0.333333  0.500000  0.166667      1.000000
 -0.166667  0.500000  0.166667      1.000000
  0.000000 -0.333333  0.166667      1.000000
  0.166667 -0.333333  0.166667      1.000000
  0.333333 -0.333333  0.166667      1.000000
  0.500000 -0.333333  0.166667      1.000000
 -0.333333 -0.333333  0.166667      1.000000
 -0.166667 -0.333333  0.166667      1.000000
  0.000000 -0.166667  0.166667      1.000000
  0.166667 -0.166667  0.166667      1.000000
  0.333333 -0.166667  0.166667      1.000000
  0.500000 -0.166667  0.166667      1.000000
 -0.333333 -0.166667  0.166667      1.000000
 -0.166667 -0.166667  0.166667      1.000000
  0.000000  0.000000  0.333333      1.000000
  0.166667 -0.000000  0.333333      1.000000
  0.333333  0.000000  0.333333      1.000000
  0.500000 -0.000000  0.333333      1.000000
 -0.333333 -0.000000  0.333333      1.000000
 -0.166667  0.000000  0.333333      1.000000
  0.000000  0.166667  0.333333      1.000000
  0.166667  0.166667  0.333333      1.000000
  0.333333  0.166667  0.333333      1.000000
  0.500000  0.166667  0.333333      1.000000
 -0.333333  0.166667  0.333333      1.000000
 -0.166667  0.166667  0.333333      1.000000
  0.000000  0.333333  0.333333      1.000000
  0.166667  0.333333  0.333333      1.000000
  0.333333  0.333333  0.333333      1.000000
  0.500000  0.333333  0.333333      1.000000
 -0.333333  0.333333  0.333333      1.000000
 -0.166667  0.333333  0.333333      1.000000
  0.000000  0.500000  0.333333      1.000000
  0.166667  0.500000  0.333333      1.000000
  0.333333  0.500000  0.333333      1.000000
  0.500000  0.500000  0.333333      1.000000
 -0.333333  0.500000  0.333333      1.000000
 -0.166667  0.500000  0.333333      1.000000
  0.000000 -0.333333  0.333333      1.000000
  0.166667 -0.333333  0.333333      1.000000
  0.333333 -0.333333  0.333333      1.000000
  0.500000 -0.333333  0.333333      1.000000
 -0.333333 -0.333333  0.333333      1.000000
 -0.166667 -0.333333  0.333333      1.000000
  0.000000 -0.166667  0.333333      1.000000
  0.166667 -0.166667  0.333333      1.000000
  0.333333 -0.166667  0.333333      1.000000
  0.500000 -0.166667  0.333333      1.000000
 -0.333333 -0.166667  0.333333      1.000000
 -0.166667 -0.166667  0.333333      1.000000
  0.000000  0.000000  0.500000      1.000000
  0.166667 -0.000000  0.500000      1.000000
  0.333333  0.000000  0.500000      1.000000
  0.500000 -0.000000  0.500000      1.000000
 -0.333333 -0.000000  0.500000      1.000000
 -0.166667  0.000000  0.500000      1.000000
  0.000000  0.166667  0.500000      1.000000
  0.166667  0.166667  0.500000      1.000000
  0.333333  0.166667  0.500000      1.000000
  0.500000  0.166667  0.500000      1.000000
 -0.333333  0.166667  0.500000      1.000000
 -0.166667  0.166667  0.500000      1.000000
  0.000000  0.333333  0.500000      1.000000
  0.166667  0.333333  0.500000      1.000000
  0.333333  0.333333  0.500000      1.000000
  0.500000  0.333333  0.500000      1.000000
 -0.333333  0.333333  0.500000      1.000000
 -0.166667  0.333333  0.500000      1.000000
  0.000000  0.500000  0.500000      1.000000
  0.166667  0.500000  0.500000      1.000000
  0.333333  0.500000  0.500000      1.000000
  0.500000  0.500000  0.500000      1.000000
 -0.333333  0.500000  0.500000      1.000000
 -0.166667  0.500000  0.500000      1.000000
  0.000000 -0.333333  0.500000      1.000000
  0.166667 -0.333333  0.500000      1.000000
  0.333333 -0.333333  0.500000      1.000000
  0.500000 -0.333333  0.500000      1.000000
 -0.333333 -0.333333  0.500000      1.000000
 -0.166667 -0.333333  0.500000      1.000000
  0.000000 -0.166667  0.500000      1.000000
  0.166667 -0.166667  0.500000      1.000000
  0.333333 -0.166667  0.500000      1.000000
  0.500000 -0.166667  0.500000      1.000000
 -0.333333 -0.166667  0.500000      1.000000
 -0.166667 -0.166667  0.500000      1.000000
  0.000000  0.000000 -0.333333      1.000000
  0.166667 -0.000000 -0.333333      1.000000
  0.333333  0.000000 -0.333333      1.000000
  0.500000 -0.000000 -0.333333      1.000000
 -0.333333 -0.000000 -0.333333      1.000000
 -0.166667  0.000000 -0.333333      1.000000
  0.000000  0.166667 -0.333333      1.000000
  0.166667  0.166667 -0.333333      1.000000
  0.333333  0.166667 -0.333333      1.000000
  0.500000  0.166667 -0.333333      1.000000
 -0.333333  0.166667 -0.333333      1.000000
 -0.166667  0.166667 -0.333333      1.000000
  0.000000  0.333333 -0.333333      1.000000
  0.166667  0.333333 -0.333333      1.000000
  0.333333  0.333333 -0.333333      1.000000
  0.500000  0.333333 -0.333333      1.000000
 -0.333333  0.333333 -0.333333      1.000000
 -0.166667  0.333333 -0.333333      1.000000
  0.000000  0.500000 -0.333333      1.000000
  0.166667  0.500000 -0.333333      1.000000
  0.333333  0.500000 -0.333333      1.000000
  0.500000  0.500000 -0.333333      1.000000
 -0.333333  0.500000 -0.333333      1.000000
 -0.166667  0.500000 -0.333333      1.000000
  0.000000 -0.333333 -0.333333      1.000000
  0.166667 -0.333333 -0.333333      1.000000
  0.333333 -0.333333 -0.333333      1.000000
  0.500000 -0.333333 -0.333333      1.000000
 -0.333333 -0.333333 -0.333333      1.000000
 -0.166667 -0.333333 -0.333333      1.000000
  0.000000 -0.166667 -0.333333      1.000000
  0.166667 -0.166667 -0.333333      1.000000
  0.333333 -0.166667 -0.333333      1.000000
  0.500000 -0.166667 -0.333333      1.000000
 -0.333333 -0.166667 -0.333333      1.000000
 -0.166667 -0.166667 -0.333333      1.000000
  0.000000  0.000000 -0.166667      1.000000
  0.166667 -0.000000 -0.166667      1.000000
  0.333333  0.000000 -0.166667      1.000000
  0.500000 -0.000000 -0.166667      1.000000
 -0.333333 -0.000000 -0.166667      1.000000
 -0.166667  0.000000 -0.166667      1.000000
  0.000000  0.166667 -0.166667      1.000000
  0.166667  0.166667 -0.166667      1.000000
  0.333333  0.166667 -0.166667      1.000000
  0.500000  0.166667 -0.166667      1.000000
 -0.333333  0.166667 -0.166667      1.000000
 -0.166667  0.166667 -0.166667      1.000000
  0.000000  0.333333 -0.166667      1.000000
  0.166667  0.333333 -0.166667      1.000000
  0.333333  0.333333 -0.166667      1.000000
  0.500000  0.333333 -0.166667      1.000000
 -0.333333  0.333333 -0.166667      1.000000
 -0.166667  0.333333 -0.166667      1.000000
  0.000000  0.500000 -0.166667      1.000000
  0.166667  0.500000 -0.166667      1.000000
  0.333333  0.500000 -0.166667      1.000000
  0.500000  0.500000 -0.166667      1.000000
 -0.333333  0.500000 -0.166667      1.000000
 -0.166667  0.500000 -0.166667      1.000000
  0.000000 -0.333333 -0.166667      1.000000
  0.166667 -0.333333 -0.166667      1.000000
  0.333333 -0.333333 -0.166667      1.000000
  0.500000 -0.333333 -0.166667      1.000000
 -0.333333 -0.333333 -0.166667      1.000000
 -0.166667 -0.333333 -0.166667      1.000000
  0.000000 -0.166667 -0.166667      1.000000
  0.166667 -0.166667 -0.166667      1.000000
  0.333333 -0.166667 -0.166667      1.000000
  0.500000 -0.166667 -0.166667      1.000000
 -0.333333 -0.166667 -0.166667      1.000000
 -0.166667 -0.166667 -0.166667      1.000000
 
 Following cartesian coordinates:
            Coordinates               Weight
  0.000000  0.000000  0.000000      1.000000
  0.045650  0.026356  0.000000      1.000000
  0.091299  0.052712  0.000000      1.000000
  0.136949  0.079067  0.000000      1.000000
 -0.091299 -0.052712  0.000000      1.000000
 -0.045650 -0.026356  0.000000      1.000000
  0.000000  0.052712  0.000000      1.000000
  0.045650  0.079067  0.000000      1.000000
  0.091299  0.105423  0.000000      1.000000
  0.136949  0.131779  0.000000      1.000000
 -0.091299  0.000000  0.000000      1.000000
 -0.045650  0.026356  0.000000      1.000000
  0.000000  0.105423  0.000000      1.000000
  0.045650  0.131779  0.000000      1.000000
  0.091299  0.158135  0.000000      1.000000
  0.136949  0.184491  0.000000      1.000000
 -0.091299  0.052712  0.000000      1.000000
 -0.045650  0.079067  0.000000      1.000000
  0.000000  0.158135  0.000000      1.000000
  0.045650  0.184491  0.000000      1.000000
  0.091299  0.210846  0.000000      1.000000
  0.136949  0.237202  0.000000      1.000000
 -0.091299  0.105423  0.000000      1.000000
 -0.045650  0.131779  0.000000      1.000000
  0.000000 -0.105423  0.000000      1.000000
  0.045650 -0.079067  0.000000      1.000000
  0.091299 -0.052712  0.000000      1.000000
  0.136949 -0.026356  0.000000      1.000000
 -0.091299 -0.158135  0.000000      1.000000
 -0.045650 -0.131779  0.000000      1.000000
  0.000000 -0.052712  0.000000      1.000000
  0.045650 -0.026356  0.000000      1.000000
  0.091299 -0.000000  0.000000      1.000000
  0.136949  0.026356  0.000000      1.000000
 -0.091299 -0.105423  0.000000      1.000000
 -0.045650 -0.079067  0.000000      1.000000
  0.000000  0.000000  0.027709      1.000000
  0.045650  0.026356  0.027709      1.000000
  0.091299  0.052712  0.027709      1.000000
  0.136949  0.079067  0.027709      1.000000
 -0.091299 -0.052712  0.027709      1.000000
 -0.045650 -0.026356  0.027709      1.000000
  0.000000  0.052712  0.027709      1.000000
  0.045650  0.079067  0.027709      1.000000
  0.091299  0.105423  0.027709      1.000000
  0.136949  0.131779  0.027709      1.000000
 -0.091299  0.000000  0.027709      1.000000
 -0.045650  0.026356  0.027709      1.000000
  0.000000  0.105423  0.027709      1.000000
  0.045650  0.131779  0.027709      1.000000
  0.091299  0.158135  0.027709      1.000000
  0.136949  0.184491  0.027709      1.000000
 -0.091299  0.052712  0.027709      1.000000
 -0.045650  0.079067  0.027709      1.000000
  0.000000  0.158135  0.027709      1.000000
  0.045650  0.184491  0.027709      1.000000
  0.091299  0.210846  0.027709      1.000000
  0.136949  0.237202  0.027709      1.000000
 -0.091299  0.105423  0.027709      1.000000
 -0.045650  0.131779  0.027709      1.000000
  0.000000 -0.105423  0.027709      1.000000
  0.045650 -0.079067  0.027709      1.000000
  0.091299 -0.052712  0.027709      1.000000
  0.136949 -0.026356  0.027709      1.000000
 -0.091299 -0.158135  0.027709      1.000000
 -0.045650 -0.131779  0.027709      1.000000
  0.000000 -0.052712  0.027709      1.000000
  0.045650 -0.026356  0.027709      1.000000
  0.091299 -0.000000  0.027709      1.000000
  0.136949  0.026356  0.027709      1.000000
 -0.091299 -0.105423  0.027709      1.000000
 -0.045650 -0.079067  0.027709      1.000000
  0.000000  0.000000  0.055417      1.000000
  0.045650  0.026356  0.055417      1.000000
  0.091299  0.052712  0.055417      1.000000
  0.136949  0.079067  0.055417      1.000000
 -0.091299 -0.052712  0.055417      1.000000
 -0.045650 -0.026356  0.055417      1.000000
  0.000000  0.052712  0.055417      1.000000
  0.045650  0.079067  0.055417      1.000000
  0.091299  0.105423  0.055417      1.000000
  0.136949  0.131779  0.055417      1.000000
 -0.091299  0.000000  0.055417      1.000000
 -0.045650  0.026356  0.055417      1.000000
  0.000000  0.105423  0.055417      1.000000
  0.045650  0.131779  0.055417      1.000000
  0.091299  0.158135  0.055417      1.000000
  0.136949  0.184491  0.055417      1.000000
 -0.091299  0.052712  0.055417      1.000000
 -0.045650  0.079067  0.055417      1.000000
  0.000000  0.158135  0.055417      1.000000
  0.045650  0.184491  0.055417      1.000000
  0.091299  0.210846  0.055417      1.000000
  0.136949  0.237202  0.055417      1.000000
 -0.091299  0.105423  0.055417      1.000000
 -0.045650  0.131779  0.055417      1.000000
  0.000000 -0.105423  0.055417      1.000000
  0.045650 -0.079067  0.055417      1.000000
  0.091299 -0.052712  0.055417      1.000000
  0.136949 -0.026356  0.055417      1.000000
 -0.091299 -0.158135  0.055417      1.000000
 -0.045650 -0.131779  0.055417      1.000000
  0.000000 -0.052712  0.055417      1.000000
  0.045650 -0.026356  0.055417      1.000000
  0.091299 -0.000000  0.055417      1.000000
  0.136949  0.026356  0.055417      1.000000
 -0.091299 -0.105423  0.055417      1.000000
 -0.045650 -0.079067  0.055417      1.000000
  0.000000  0.000000  0.083126      1.000000
  0.045650  0.026356  0.083126      1.000000
  0.091299  0.052712  0.083126      1.000000
  0.136949  0.079067  0.083126      1.000000
 -0.091299 -0.052712  0.083126      1.000000
 -0.045650 -0.026356  0.083126      1.000000
  0.000000  0.052712  0.083126      1.000000
  0.045650  0.079067  0.083126      1.000000
  0.091299  0.105423  0.083126      1.000000
  0.136949  0.131779  0.083126      1.000000
 -0.091299  0.000000  0.083126      1.000000
 -0.045650  0.026356  0.083126      1.000000
  0.000000  0.105423  0.083126      1.000000
  0.045650  0.131779  0.083126      1.000000
  0.091299  0.158135  0.083126      1.000000
  0.136949  0.184491  0.083126      1.000000
 -0.091299  0.052712  0.083126      1.000000
 -0.045650  0.079067  0.083126      1.000000
  0.000000  0.158135  0.083126      1.000000
  0.045650  0.184491  0.083126      1.000000
  0.091299  0.210846  0.083126      1.000000
  0.136949  0.237202  0.083126      1.000000
 -0.091299  0.105423  0.083126      1.000000
 -0.045650  0.131779  0.083126      1.000000
  0.000000 -0.105423  0.083126      1.000000
  0.045650 -0.079067  0.083126      1.000000
  0.091299 -0.052712  0.083126      1.000000
  0.136949 -0.026356  0.083126      1.000000
 -0.091299 -0.158135  0.083126      1.000000
 -0.045650 -0.131779  0.083126      1.000000
  0.000000 -0.052712  0.083126      1.000000
  0.045650 -0.026356  0.083126      1.000000
  0.091299 -0.000000  0.083126      1.000000
  0.136949  0.026356  0.083126      1.000000
 -0.091299 -0.105423  0.083126      1.000000
 -0.045650 -0.079067  0.083126      1.000000
  0.000000  0.000000 -0.055417      1.000000
  0.045650  0.026356 -0.055417      1.000000
  0.091299  0.052712 -0.055417      1.000000
  0.136949  0.079067 -0.055417      1.000000
 -0.091299 -0.052712 -0.055417      1.000000
 -0.045650 -0.026356 -0.055417      1.000000
  0.000000  0.052712 -0.055417      1.000000
  0.045650  0.079067 -0.055417      1.000000
  0.091299  0.105423 -0.055417      1.000000
  0.136949  0.131779 -0.055417      1.000000
 -0.091299  0.000000 -0.055417      1.000000
 -0.045650  0.026356 -0.055417      1.000000
  0.000000  0.105423 -0.055417      1.000000
  0.045650  0.131779 -0.055417      1.000000
  0.091299  0.158135 -0.055417      1.000000
  0.136949  0.184491 -0.055417      1.000000
 -0.091299  0.052712 -0.055417      1.000000
 -0.045650  0.079067 -0.055417      1.000000
  0.000000  0.158135 -0.055417      1.000000
  0.045650  0.184491 -0.055417      1.000000
  0.091299  0.210846 -0.055417      1.000000
  0.136949  0.237202 -0.055417      1.000000
 -0.091299  0.105423 -0.055417      1.000000
 -0.045650  0.131779 -0.055417      1.000000
  0.000000 -0.105423 -0.055417      1.000000
  0.045650 -0.079067 -0.055417      1.000000
  0.091299 -0.052712 -0.055417      1.000000
  0.136949 -0.026356 -0.055417      1.000000
 -0.091299 -0.158135 -0.055417      1.000000
 -0.045650 -0.131779 -0.055417      1.000000
  0.000000 -0.052712 -0.055417      1.000000
  0.045650 -0.026356 -0.055417      1.000000
  0.091299 -0.000000 -0.055417      1.000000
  0.136949  0.026356 -0.055417      1.000000
 -0.091299 -0.105423 -0.055417      1.000000
 -0.045650 -0.079067 -0.055417      1.000000
  0.000000  0.000000 -0.027709      1.000000
  0.045650  0.026356 -0.027709      1.000000
  0.091299  0.052712 -0.027709      1.000000
  0.136949  0.079067 -0.027709      1.000000
 -0.091299 -0.052712 -0.027709      1.000000
 -0.045650 -0.026356 -0.027709      1.000000
  0.000000  0.052712 -0.027709      1.000000
  0.045650  0.079067 -0.027709      1.000000
  0.091299  0.105423 -0.027709      1.000000
  0.136949  0.131779 -0.027709      1.000000
 -0.091299  0.000000 -0.027709      1.000000
 -0.045650  0.026356 -0.027709      1.000000
  0.000000  0.105423 -0.027709      1.000000
  0.045650  0.131779 -0.027709      1.000000
  0.091299  0.158135 -0.027709      1.000000
  0.136949  0.184491 -0.027709      1.000000
 -0.091299  0.052712 -0.027709      1.000000
 -0.045650  0.079067 -0.027709      1.000000
  0.000000  0.158135 -0.027709      1.000000
  0.045650  0.184491 -0.027709      1.000000
  0.091299  0.210846 -0.027709      1.000000
  0.136949  0.237202 -0.027709      1.000000
 -0.091299  0.105423 -0.027709      1.000000
 -0.045650  0.131779 -0.027709      1.000000
  0.000000 -0.105423 -0.027709      1.000000
  0.045650 -0.079067 -0.027709      1.000000
  0.091299 -0.052712 -0.027709      1.000000
  0.136949 -0.026356 -0.027709      1.000000
 -0.091299 -0.158135 -0.027709      1.000000
 -0.045650 -0.131779 -0.027709      1.000000
  0.000000 -0.052712 -0.027709      1.000000
  0.045650 -0.026356 -0.027709      1.000000
  0.091299 -0.000000 -0.027709      1.000000
  0.136949  0.026356 -0.027709      1.000000
 -0.091299 -0.105423 -0.027709      1.000000
 -0.045650 -0.079067 -0.027709      1.000000
 
 TETIRR: Found   1296 inequivalent tetrahedra from     1296
 files read and symmetry switched off, memory is now:
 total amount of memory used by VASP on root node   189960. kBytes
========================================================================

   base      :      30000. kBytes
   nonl-proj :      80434. kBytes
   fftplans  :       1680. kBytes
   grid      :       3557. kBytes
   one-center:         46. kBytes
   HF        :        259. kBytes
   nonlr-proj:        551. kBytes
   wavefun   :      73433. kBytes
 
 Basis sets for responsefunctions:
 =================================
 k-point  1 :   0.0000 0.0000 0.0000  plane waves:     701
 k-point  2 :   0.1667-0.0000 0.0000  plane waves:     677
 k-point  3 :   0.3333 0.0000 0.0000  plane waves:     686
 k-point  4 :   0.5000-0.0000 0.0000  plane waves:     684
 k-point  5 :   0.1667 0.1667 0.0000  plane waves:     685
 k-point  6 :   0.3333 0.1667 0.0000  plane waves:     685
 k-point  7 :   0.3333 0.3333 0.0000  plane waves:     699
 k-point  8 :   0.0000 0.0000 0.1667  plane waves:     682
 k-point  9 :   0.1667-0.0000 0.1667  plane waves:     684
 k-point 10 :   0.3333 0.0000 0.1667  plane waves:     688
 k-point 11 :   0.5000-0.0000 0.1667  plane waves:     692
 k-point 12 :  -0.3333-0.0000 0.1667  plane waves:     688
 k-point 13 :  -0.1667 0.0000 0.1667  plane waves:     684
 k-point 14 :   0.1667 0.1667 0.1667  plane waves:     679
 k-point 15 :   0.3333 0.1667 0.1667  plane waves:     688
 k-point 16 :   0.5000 0.1667 0.1667  plane waves:     688
 k-point 17 :   0.3333 0.3333 0.1667  plane waves:     708
 k-point 18 :   0.0000 0.0000 0.3333  plane waves:     670
 k-point 19 :   0.1667-0.0000 0.3333  plane waves:     678
 k-point 20 :   0.3333 0.0000 0.3333  plane waves:     685
 k-point 21 :   0.5000-0.0000 0.3333  plane waves:     694
 k-point 22 :  -0.3333-0.0000 0.3333  plane waves:     685
 k-point 23 :  -0.1667 0.0000 0.3333  plane waves:     678
 k-point 24 :   0.1667 0.1667 0.3333  plane waves:     684
 k-point 25 :   0.3333 0.1667 0.3333  plane waves:     691
 k-point 26 :   0.5000 0.1667 0.3333  plane waves:     691
 k-point 27 :   0.3333 0.3333 0.3333  plane waves:     696
 k-point 28 :   0.0000 0.0000 0.5000  plane waves:     676
 k-point 29 :   0.1667-0.0000 0.5000  plane waves:     674
 k-point 30 :   0.3333 0.0000 0.5000  plane waves:     694
 k-point 31 :   0.5000-0.0000 0.5000  plane waves:     692
 k-point 32 :   0.1667 0.1667 0.5000  plane waves:     684
 k-point 33 :   0.3333 0.1667 0.5000  plane waves:     696
 k-point 34 :   0.3333 0.3333 0.5000  plane waves:     690
 k-point 35 :  -0.3333-0.0000 0.0000  plane waves:     686
 k-point 36 :  -0.1667 0.0000 0.0000  plane waves:     677
 k-point 37 :   0.0000 0.1667 0.0000  plane waves:     677
 k-point 38 :  -0.5000 0.1667 0.0000  plane waves:     685
 k-point 39 :  -0.3333 0.1667 0.0000  plane waves:     685
 k-point 40 :  -0.1667 0.1667 0.0000  plane waves:     677
 k-point 41 :  -0.0000 0.3333 0.0000  plane waves:     686
 k-point 42 :   0.1667 0.3333 0.0000  plane waves:     685
 k-point 43 :  -0.5000 0.3333 0.0000  plane waves:     685
 k-point 44 :  -0.3333 0.3333 0.0000  plane waves:     686
 k-point 45 :  -0.1667 0.3333 0.0000  plane waves:     685
 k-point 46 :  -0.0000-0.5000 0.0000  plane waves:     684
 k-point 47 :   0.1667-0.5000 0.0000  plane waves:     685
 k-point 48 :   0.3333-0.5000 0.0000  plane waves:     685
 k-point 49 :  -0.5000 0.5000 0.0000  plane waves:     684
 k-point 50 :  -0.3333 0.5000 0.0000  plane waves:     685
 k-point 51 :  -0.1667 0.5000 0.0000  plane waves:     685
 k-point 52 :   0.0000-0.3333 0.0000  plane waves:     686
 k-point 53 :   0.1667-0.3333 0.0000  plane waves:     685
 k-point 54 :   0.3333-0.3333 0.0000  plane waves:     686
 k-point 55 :   0.5000-0.3333 0.0000  plane waves:     685
 k-point 56 :  -0.3333-0.3333 0.0000  plane waves:     699
 k-point 57 :  -0.1667-0.3333 0.0000  plane waves:     685
 k-point 58 :  -0.0000-0.1667 0.0000  plane waves:     677
 k-point 59 :   0.1667-0.1667 0.0000  plane waves:     677
 k-point 60 :   0.3333-0.1667 0.0000  plane waves:     685
 k-point 61 :   0.5000-0.1667 0.0000  plane waves:     685
 k-point 62 :  -0.3333-0.1667 0.0000  plane waves:     685
 k-point 63 :  -0.1667-0.1667 0.0000  plane waves:     685
 k-point 64 :   0.0000 0.1667 0.1667  plane waves:     684
 k-point 65 :  -0.3333 0.1667 0.1667  plane waves:     679
 k-point 66 :  -0.1667 0.1667 0.1667  plane waves:     684
 k-point 67 :  -0.0000 0.3333 0.1667  plane waves:     688
 k-point 68 :   0.1667-0.6667 0.1667  plane waves:     688
 k-point 69 :  -0.5000 0.3333 0.1667  plane waves:     688
 k-point 70 :  -0.3333 0.3333 0.1667  plane waves:     688
 k-point 71 :  -0.1667 0.3333 0.1667  plane waves:     679
 k-point 72 :  -0.0000-0.5000 0.1667  plane waves:     692
 k-point 73 :   0.1667-0.5000 0.1667  plane waves:     688
 k-point 74 :  -0.6667 0.5000 0.1667  plane waves:     688
 k-point 75 :  -0.5000 0.5000 0.1667  plane waves:     692
 k-point 76 :  -0.3333 0.5000 0.1667  plane waves:     688
 k-point 77 :  -0.1667-0.5000 0.1667  plane waves:     688
 k-point 78 :   0.0000-0.3333 0.1667  plane waves:     688
 k-point 79 :   0.1667-0.3333 0.1667  plane waves:     679
 k-point 80 :   0.3333-0.3333 0.1667  plane waves:     688
 k-point 81 :  -0.5000 0.6667 0.1667  plane waves:     688
 k-point 82 :  -0.3333 0.6667 0.1667  plane waves:     708
 k-point 83 :  -0.1667-0.3333 0.1667  plane waves:     688
 k-point 84 :  -0.0000-0.1667 0.1667  plane waves:     684
 k-point 85 :   0.1667-0.1667 0.1667  plane waves:     684
 k-point 86 :   0.3333-0.1667 0.1667  plane waves:     679
 k-point 87 :   0.5000-0.1667 0.1667  plane waves:     688
 k-point 88 :   0.6667-0.1667 0.1667  plane waves:     688
 k-point 89 :  -0.1667-0.1667 0.1667  plane waves:     679
 k-point 90 :   0.0000 0.1667 0.3333  plane waves:     678
 k-point 91 :  -0.3333 0.1667 0.3333  plane waves:     684
 k-point 92 :  -0.1667 0.1667 0.3333  plane waves:     678
 k-point 93 :  -0.0000 0.3333 0.3333  plane waves:     685
 k-point 94 :   0.1667-0.6667 0.3333  plane waves:     691
 k-point 95 :  -0.5000 0.3333 0.3333  plane waves:     691
 k-point 96 :  -0.3333 0.3333 0.3333  plane waves:     685
 k-point 97 :  -0.1667 0.3333 0.3333  plane waves:     684
 k-point 98 :  -0.0000-0.5000 0.3333  plane waves:     694
 k-point 99 :   0.1667-0.5000 0.3333  plane waves:     691
 k-point ** :  -0.6667 0.5000 0.3333  plane waves:     691
 k-point ** :  -0.5000 0.5000 0.3333  plane waves:     694
 k-point ** :  -0.3333 0.5000 0.3333  plane waves:     691
 k-point ** :  -0.1667-0.5000 0.3333  plane waves:     691
 k-point ** :   0.0000-0.3333 0.3333  plane waves:     685
 k-point ** :   0.1667-0.3333 0.3333  plane waves:     684
 k-point ** :   0.3333-0.3333 0.3333  plane waves:     685
 k-point ** :  -0.5000 0.6667 0.3333  plane waves:     691
 k-point ** :  -0.3333 0.6667 0.3333  plane waves:     696
[...]
     10       2.2514       2.2120       2.2135       2.2018       0.7641       2.0000
     11       2.6412       2.5856       2.5902       2.5752       0.7731       2.0000
     12       2.7813       2.7366       2.7374       2.7244       0.7712       2.0000
     13       3.7610       3.7200       3.7197       3.7078       0.7762       2.0000
     14       8.4468       8.4345       8.4314       8.4275       0.7982       0.0000
     15      10.2512      10.2433      10.2404      10.2378       0.8048       0.0000
     16      11.5165      11.5106      11.5072      11.5049       0.7990       0.0000
     17      11.5791      11.5678      11.5675      11.5645       0.7965       0.0000
     18      12.7698      12.7833      12.7817      12.7845       0.8076       0.0000
     19      14.1250      14.1563      14.1540      14.1615       0.7955       0.0000
     20      14.9814      15.0143      15.0106      15.0182       0.7938       0.0000
     21      15.1448      15.1570      15.1565      15.1595       0.7977       0.0000
     22      17.1250      17.1432      17.1417      17.1460       0.7941       0.0000
     23      17.9755      17.9935      17.9921      17.9966       0.7856       0.0000
     24      18.3216      18.3507      18.3492      18.3567       0.7850       0.0000
     25      19.0805      19.1130      19.1124      19.1214       0.7805       0.0000
     26      19.6618      19.6771      19.6759      19.6795       0.7963       0.0000
     27      20.5268      20.5546      20.5532      20.5602       0.7890       0.0000
     28      21.1315      21.1550      21.1509      21.1562       0.7840       0.0000
     29      21.5016      21.5375      21.5345      21.5434       0.7868       0.0000
     30      22.4153      22.4374      22.4344      22.4396       0.7854       0.0000
     31      24.8374      24.8736      24.8717      24.8804       0.7967       0.0000
     32      25.0545      25.0821      25.0793      25.0857       0.7966       0.0000
 

 k-point  30 :       0.3333    0.0000    0.5000
  band No. DFT-energies  QP-energies  QP-e(diag)   sigma(DFT)    Z            occupation

      1     -19.8999     -20.0807     -20.0752     -20.1284       0.7669       2.0000
      2     -19.8596     -20.0368     -20.0329     -20.0823       0.7781       2.0000
      3     -19.8076     -19.9869     -19.9861     -20.0411       0.7645       2.0000
      4     -19.7651     -19.9435     -19.9412     -19.9942       0.7686       2.0000
      5     -19.7651     -19.9419     -19.9433     -19.9963       0.7708       2.0000
      6      -8.6871      -8.7883      -8.7813      -8.8244       0.6860       2.0000
      7      -7.5021      -7.5862      -7.5843      -7.6204       0.6947       2.0000
      8      -2.3111      -2.3736      -2.3710      -2.3879       0.7796       2.0000
      9      -0.3189      -0.3743      -0.3685      -0.3854       0.7463       2.0000
     10       1.7999       1.7385       1.7443       1.7273       0.7656       2.0000
     11       1.9863       1.9404       1.9431       1.9295       0.7606       2.0000
     12       2.7778       2.7390       2.7372       2.7249       0.7678       2.0000
     13       3.4893       3.4509       3.4511       3.4399       0.7733       2.0000
     14       7.3476       7.3426       7.3427       7.3416       0.8085       0.0000
     15      10.2445      10.2496      10.2469      10.2475       0.8122       0.0000
     16      11.4460      11.4568      11.4556      11.4580       0.8038       0.0000
     17      12.2577      12.2701      12.2689      12.2717       0.8046       0.0000
     18      12.5071      12.5025      12.5006      12.4988       0.7880       0.0000
     19      15.3334      15.3583      15.3515      15.3565       0.7822       0.0000
     20      15.8491      15.8732      15.8703      15.8759       0.7899       0.0000
     21      16.7535      16.7702      16.7698      16.7740       0.7984       0.0000
     22      16.7556      16.7834      16.7814      16.7881       0.7933       0.0000
     23      17.6567      17.6895      17.6878      17.6961       0.7908       0.0000
     24      18.6352      18.6622      18.6618      18.6691       0.7835       0.0000
     25      19.1527      19.1751      19.1740      19.1799       0.7809       0.0000
     26      21.7304      21.7497      21.7467      21.7511       0.7868       0.0000
     27      22.3311      22.3630      22.3602      22.3685       0.7781       0.0000
     28      23.5755      23.5860      23.5831      23.5850       0.7976       0.0000
     29      24.8643      24.8763      24.8731      24.8755       0.7891       0.0000
     30      24.9121      24.9309      24.9296      24.9344       0.7879       0.0000
     31      25.8210      25.8384      25.8344      25.8382       0.7791       0.0000
     32      26.0270      26.0386      26.0361      26.0386       0.7884       0.0000
 

 k-point  31 :       0.5000   -0.0000    0.5000
  band No. DFT-energies  QP-energies  QP-e(diag)   sigma(DFT)    Z            occupation

      1     -19.9080     -20.0895     -20.0837     -20.1378       0.7646       2.0000
      2     -19.8578     -20.0335     -20.0290     -20.0780       0.7773       2.0000
      3     -19.8129     -19.9930     -19.9921     -20.0473       0.7643       2.0000
      4     -19.7528     -19.9304     -19.9302     -19.9824       0.7726       2.0000
      5     -19.7528     -19.9291     -19.9286     -19.9806       0.7719       2.0000
      6      -7.9062      -8.0008      -7.9947      -8.0347       0.6889       2.0000
      7      -7.4240      -7.5113      -7.5069      -7.5423       0.7011       2.0000
      8      -3.2575      -3.3253      -3.3221      -3.3416       0.7679       2.0000
      9      -1.1361      -1.1893      -1.1833      -1.1987       0.7535       2.0000
     10       1.4633       1.4005       1.4068       1.3893       0.7626       2.0000
     11       1.9716       1.9245       1.9269       1.9127       0.7594       2.0000
     12       3.1281       3.0871       3.0864       3.0739       0.7703       2.0000
     13       3.3533       3.3151       3.3125       3.3004       0.7718       2.0000
     14       6.8441       6.8405       6.8406       6.8398       0.8101       0.0000
     15       9.9116       9.9204       9.9176       9.9189       0.8137       0.0000
     16      10.9202      10.9388      10.9386      10.9429       0.8088       0.0000
     17      11.5726      11.5812      11.5810      11.5829       0.8145       0.0000
     18      12.6625      12.6607      12.6588      12.6577       0.7867       0.0000
     19      15.8604      15.8955      15.8908      15.8990       0.7882       0.0000
     20      16.6487      16.6905      16.6871      16.6975       0.7864       0.0000
     21      17.5706      17.6091      17.6086      17.6184       0.7949       0.0000
     22      17.7735      17.7992      17.7951      17.8017       0.7651       0.0000
     23      19.1204      19.1408      19.1392      19.1446       0.7779       0.0000
     24      19.6457      19.6510      19.6510      19.6526       0.7777       0.0000
     25      20.6534      20.6580      20.6567      20.6577       0.7763       0.0000
     26      21.2773      21.2970      21.2962      21.3015       0.7775       0.0000
     27      22.8537      22.8803      22.8786      22.8860       0.7706       0.0000
     28      23.1070      23.1234      23.1199      23.1234       0.7858       0.0000
     29      23.1696      23.1831      23.1819      23.1854       0.7819       0.0000
     30      24.8269      24.8533      24.8492      24.8549       0.7961       0.0000
     31      25.1911      25.2054      25.1994      25.2017       0.7876       0.0000
     32      25.6714      25.6927      25.6882      25.6929       0.7829       0.0000
 

 k-point  32 :       0.1667    0.1667    0.5000
  band No. DFT-energies  QP-energies  QP-e(diag)   sigma(DFT)    Z            occupation

      1     -19.8911     -20.0712     -20.0658     -20.1179       0.7706       2.0000
      2     -19.8649     -20.0434     -20.0389     -20.0895       0.7747       2.0000
      3     -19.7982     -19.9779     -19.9772     -20.0313       0.7680       2.0000
      4     -19.7864     -19.9640     -19.9634     -20.0172       0.7667       2.0000
      5     -19.7650     -19.9419     -19.9412     -19.9940       0.7695       2.0000
      6      -8.9490      -9.0525      -9.0460      -9.0910       0.6831       2.0000
      7      -7.6159      -7.6997      -7.6968      -7.7324       0.6947       2.0000
      8      -1.7781      -1.8378      -1.8317      -1.8473       0.7751       2.0000
      9       0.3461       0.2882       0.2923       0.2745       0.7508       2.0000
     10       1.1671       1.1089       1.1144       1.0973       0.7547       2.0000
     11       2.1207       2.0788       2.0824       2.0705       0.7624       2.0000
     12       3.0418       3.0022       3.0014       2.9895       0.7717       2.0000
     13       3.1500       3.1106       3.1102       3.0984       0.7722       2.0000
     14       8.3728       8.3646       8.3630       8.3604       0.7940       0.0000
     15      10.8043      10.8055      10.8043      10.8044       0.8049       0.0000
     16      11.8094      11.8136      11.8119      11.8125       0.8002       0.0000
     17      11.9664      11.9626      11.9578      11.9556       0.7912       0.0000
     18      12.6240      12.6339      12.6333      12.6356       0.8056       0.0000
     19      14.0432      14.0629      14.0621      14.0668       0.8016       0.0000
     20      15.0764      15.0986      15.0973      15.1027       0.7953       0.0000
     21      15.1695      15.2020      15.1970      15.2045       0.7872       0.0000
     22      17.2476      17.2836      17.2817      17.2907       0.7916       0.0000
     23      17.9723      17.9910      17.9893      17.9939       0.7878       0.0000
     24      19.0843      19.1031      19.1022      19.1071       0.7832       0.0000
     25      19.8840      19.9136      19.9103      19.9178       0.7774       0.0000
     26      21.5130      21.5299      21.5254      21.5283       0.8066       0.0000
     27      21.8116      21.8452      21.8419      21.8503       0.7827       0.0000
     28      22.3902      22.4036      22.4004      22.4031       0.7897       0.0000
     29      23.5476      23.5704      23.5691      23.5749       0.7880       0.0000
     30      23.6322      23.6510      23.6490      23.6533       0.7939       0.0000
     31      25.3402      25.3566      25.3528      25.3563       0.7839       0.0000
     32      26.3883      26.4088      26.4063      26.4115       0.7761       0.0000
 

 k-point  33 :       0.3333    0.1667    0.5000
  band No. DFT-energies  QP-energies  QP-e(diag)   sigma(DFT)    Z            occupation

      1     -19.8964     -20.0770     -20.0715     -20.1242       0.7686       2.0000
      2     -19.8629     -20.0408     -20.0360     -20.0862       0.7750       2.0000
      3     -19.8027     -19.9822     -19.9814     -20.0358       0.7666       2.0000
      4     -19.7681     -19.9456     -19.9452     -19.9987       0.7682       2.0000
      5     -19.7537     -19.9295     -19.9290     -19.9811       0.7709       2.0000
      6      -8.0180      -8.1134      -8.1077      -8.1477       0.6919       2.0000
      7      -7.3226      -7.4080      -7.4052      -7.4409       0.6985       2.0000
      8      -3.0050      -3.0747      -3.0702      -3.0898       0.7698       2.0000
      9      -0.7345      -0.7890      -0.7831      -0.7992       0.7503       2.0000
     10       0.4771       0.4181       0.4246       0.4071       0.7504       2.0000
     11       1.3357       1.2884       1.2938       1.2802       0.7556       2.0000
     12       3.2315       3.1914       3.1897       3.1773       0.7712       2.0000
     13       3.4110       3.3711       3.3694       3.3571       0.7721       2.0000
     14       7.9729       7.9688       7.9691       7.9681       0.7996       0.0000
     15      10.5321      10.5459      10.5437      10.5464       0.8102       0.0000
     16      11.4916      11.4972      11.4946      11.4953       0.7992       0.0000
     17      11.9520      11.9625      11.9614      11.9638       0.7974       0.0000
     18      12.7216      12.7271      12.7269      12.7282       0.8067       0.0000
     19      14.3423      14.3843      14.3829      14.3930       0.8002       0.0000
     20      15.6291      15.6413      15.6389      15.6414       0.7898       0.0000
     21      15.9605      15.9827      15.9799      15.9852       0.7860       0.0000
     22      17.6775      17.7068      17.7030      17.7104       0.7746       0.0000
     23      19.5964      19.6291      19.6275      19.6362       0.7814       0.0000
     24      20.0221      20.0310      20.0290      20.0310       0.7750       0.0000
     25      21.3219      21.3384      21.3370      21.3414       0.7766       0.0000
     26      21.6977      21.7202      21.7162      21.7214       0.7807       0.0000
     27      22.4085      22.4350      22.4330      22.4399       0.7801       0.0000
     28      23.2862      23.3058      23.3012      23.3054       0.7827       0.0000
     29      23.8892      23.9130      23.9100      23.9155       0.7880       0.0000
     30      25.0980      25.1236      25.1200      25.1259       0.7896       0.0000
     31      25.9137      25.9357      25.9310      25.9360       0.7772       0.0000
     32      26.3385      26.3516      26.3488      26.3516       0.7856       0.0000
 

 k-point  34 :       0.3333    0.3333    0.5000
  band No. DFT-energies  QP-energies  QP-e(diag)   sigma(DFT)    Z            occupation

      1     -19.8786     -20.0577     -20.0525     -20.1041       0.7710       2.0000
      2     -19.8786     -20.0577     -20.0525     -20.1041       0.7710       2.0000
      3     -19.7797     -19.9592     -19.9587     -20.0122       0.7698       2.0000
      4     -19.7797     -19.9592     -19.9587     -20.0122       0.7698       2.0000
      5     -19.7577     -19.9340     -19.9335     -19.9861       0.7695       2.0000
      6      -7.4151      -7.5048      -7.5015      -7.5393       0.6955       2.0000
      7      -7.4151      -7.5048      -7.5015      -7.5393       0.6955       2.0000
      8      -3.3146      -3.3906      -3.3835      -3.4037       0.7732       2.0000
      9      -0.3372      -0.3919      -0.3857      -0.4024       0.7448       2.0000
     10      -0.3372      -0.3918      -0.3857      -0.4023       0.7448       2.0000
     11       0.1614       0.1112       0.1209       0.1073       0.7490       2.0000
     12       3.5040       3.4630       3.4600       3.4470       0.7721       2.0000
     13       3.5040       3.4630       3.4600       3.4470       0.7721       2.0000
     14       8.6773       8.6729       8.6741       8.6733       0.7856       0.0000
     15      10.7386      10.7509      10.7489      10.7513       0.8085       0.0000
     16      10.7386      10.7509      10.7489      10.7514       0.8085       0.0000
     17      12.6438      12.6727      12.6737      12.6810       0.8056       0.0000
     18      13.7721      13.8032      13.7984      13.8055       0.7886       0.0000
     19      15.0052      15.0150      15.0142      15.0166       0.7961       0.0000
     20      15.0204      15.0322      15.0296      15.0320       0.7901       0.0000
     21      15.0204      15.0322      15.0296      15.0320       0.7901       0.0000
     22      17.3945      17.4066      17.4049      17.4078       0.7858       0.0000
     23      17.3945      17.4066      17.4050      17.4078       0.7858       0.0000
     24      21.3381      21.3774      21.3730      21.3831       0.7757       0.0000
     25      21.3381      21.3774      21.3731      21.3832       0.7757       0.0000
     26      23.4822      23.5020      23.4982      23.5025       0.7879       0.0000
     27      23.4822      23.5021      23.4982      23.5026       0.7879       0.0000
     28      24.4891      24.5022      24.5000      24.5030       0.7829       0.0000
     29      24.5188      24.5353      24.5303      24.5336       0.7793       0.0000
     30      25.4039      25.4354      25.4317      25.4392       0.7878       0.0000
     31      25.5648      25.5840      25.5775      25.5815       0.7647       0.0000
 
     32      24.8274      24.8274      24.8274      24.8274       1.0000       0.0000


--------------------------------------------------------------------------------------------------------


 BZINTS: Fermi energy:  3.966501; 26.000000 electrons
         Band energy:-218.829289;  BLOECHL correction:  0.000000

IMPORTANT INFORMATION: All symmetrisations will be switched off!
NOSYMM: (Re-)initialisation of all symmetry stuff for point group C_1.

   GW_DIAG:  cpu time    0.8640: real time    0.8672
 BZINTS: Fermi energy:  3.966501; 26.000000 electrons
         Band energy:-218.829289;  BLOECHL correction:  0.000000
    GWLOOP:  cpu time 2183.6000: real time 2186.9382
  LATTYP: Found a hexagonal cell.
 ALAT       =     3.6510002172
 C/A-ratio  =     1.6474937393
  
  Lattice vectors:
  
 A1 = (   3.6510000000,   0.0000000000,   0.0000000000)
 A2 = (  -1.8255000000,   3.1618590000,   0.0000000000)
 A3 = (   0.0000000000,   0.0000000000,   6.0150000000)


Analysis of symmetry for initial positions (statically):
=====================================================================
 Subroutine PRICEL returns:
 Original cell was already a primitive cell.
 

 Routine SETGRP: Setting up the symmetry group for a 
 hexagonal supercell.


 Subroutine GETGRP returns: Found 12 space group operations
 (whereof 12 operations were pure point group operations)
 out of a pool of 24 trial point group operations.


The static configuration has the point symmetry D_3d.


Analysis of symmetry for dynamics (positions and initial velocities):
=====================================================================
 Subroutine PRICEL returns:
 Original cell was already a primitive cell.
 

 Routine SETGRP: Setting up the symmetry group for a 
 hexagonal supercell.


 Subroutine GETGRP returns: Found 12 space group operations
 (whereof 12 operations were pure point group operations)
 out of a pool of 24 trial point group operations.


The dynamic configuration has the point symmetry D_3d.


 Subroutine INISYM returns: Found 12 space group operations
 (whereof 12 operations are pure point group operations),
 and found     1 'primitive' translations

 writing wavefunctions
   RESPFUN:  cpu time  109.5840: real time  109.9545
    4ORBIT:  cpu time    0.0000: real time    0.0000
 BZINTS: Fermi energy:  3.966501; 26.000000 electrons
         Band energy:-218.829289;  BLOECHL correction:  0.000000

 total amount of memory used by VASP on root node    60364. kBytes
========================================================================

   base      :      30000. kBytes
   nonl-proj :      12713. kBytes
   fftplans  :       1680. kBytes
   grid      :       3557. kBytes
   one-center:         46. kBytes
   HF        :        259. kBytes
   nonlr-proj:        551. kBytes
   wavefun   :      11558. kBytes
   2eintegral:          0. kBytes
   fockhandle:          0. kBytes
   response  :          0. kBytes
   cacher    :          0. kBytes
 
  
  
 General timing and accounting informations for this job:
 ========================================================
  
                  Total CPU time used (sec):     8949.852
                            User time (sec):     8911.904
                          System time (sec):       37.948
                         Elapsed time (sec):     8961.448
  
                   Maximum memory used (kb):      991344.
                   Average memory used (kb):           0.
  
                          Minor page faults:      1808964
                          Major page faults:            0
                 Voluntary context switches:           62
