 
             +---------------------------------------------------+
             |                                                   |
             |                   WANNIER90                       |
             |                                                   |
             +---------------------------------------------------+
             |                                                   |
             |        Welcome to the Maximally-Localized         |
             |        Generalized Wannier Functions code         |
             |            http://www.wannier.org                 |
             |                                                   |
             |  Wannier90 Authors:                               |
             |    Arash A. Mostofi   (Imperial College London)   |
             |    Jonathan R. Yates  (University of Oxford)      |
             |    Young-Su Lee       (KIST, S. Korea)            |
             |                                                   |
             |  Wannier90 Contributors:                          |
             |    Matthew Shelley    (Imperial College London)   |
             |    Nicolas Poilvert   (MIT)                       |
             |                                                   |
             |  Wannier77 Authors:                               |
             |    Nicola Marzari     (University of Oxford)      |
             |    Ivo Souza          (UC Berkeley)               |
             |    David Vanderbilt   (Rutgers University)        |
             |                                                   |
             |  Please cite                                      |
             |                                                   |
             |  [ref] "Wannier90: A Tool for Obtaining Maximally |
             |         Localised Wannier Functions"              |
             |        A. A. Mostofi, J. R. Yates, Y.-S. Lee,     |
             |        I. Souza, D. Vanderbilt and N. Marzari     |
             |        Comput. Phys. Commun. 178, 685 (2008)      |
             |                                                   |
             |  in any publications arising from the use of      |
             |  this code. For the method please cite            |
             |                                                   |
             |  [ref] "Maximally Localized Generalised Wannier   |
             |         Functions for Composite Energy Bands"     |
             |         N. Marzari and D. Vanderbilt              |
             |         Phys. Rev. B 56 12847 (1997)              |
             |                                                   |
             |  [ref] "Maximally Localized Wannier Functions     |
             |         for Entangled Energy Bands"               |
             |         I. Souza, N. Marzari and D. Vanderbilt    |
             |         Phys. Rev. B 65 035109 (2001)             |
             |                                                   |
             |                                                   |
             | Copyright (c) 1996-2010                           |
             |        A. A. Mostofi, J. R. Yates, Y.-S. Lee,     |
             |        I. Souza, D. Vanderbilt and N. Marzari     |
             |                                                   |
             |        Release: 1.2        24th Jan 2010          |
             |                                                   |
             | This program is free software; you can            |
             | redistribute it and/or modify it under the terms  |
             | of the GNU General Public License as published by |
             | the Free Software Foundation; either version 2 of |
             | the License, or (at your option) any later version|
             |                                                   |
             | This program is distributed in the hope that it   |
             | will be useful, but WITHOUT ANY WARRANTY; without |
             | even the implied warranty of MERCHANTABILITY or   |
             | FITNESS FOR A PARTICULAR PURPOSE. See the GNU     |
             | General Public License for more details.          |
             |                                                   |
             | You should have received a copy of the GNU General|
             | Public License along with this program; if not,   |
             | write to the Free Software Foundation, Inc.,      |
             | 675 Mass Ave, Cambridge, MA 02139, USA.           |
             |                                                   |
             +---------------------------------------------------+
             |    Execution started on 30Oct2016 at 18:46:48     |
             +---------------------------------------------------+
 
                                    ------
                                    SYSTEM
                                    ------
 
                              Lattice Vectors (Ang)
                    a_1     3.651000   0.000000   0.000000
                    a_2    -1.825500   3.161859   0.000000
                    a_3     0.000000   0.000000   6.015000
 
                   Unit Cell Volume:      69.43684  (Ang^3)
 
                        Reciprocal-Space Vectors (Ang^-1)
                    b_1     1.720949   0.993590   0.000000
                    b_2     0.000000   1.987181   0.000000
                    b_3     0.000000   0.000000   1.044586
  
 *----------------------------------------------------------------------------*
 |   Site       Fractional Coordinate          Cartesian Coordinate (Ang)     |
 +----------------------------------------------------------------------------+
 | Sn   1   0.00000   0.00000   0.00000   |    0.00000   0.00000   0.00000    |
 | S    1   0.33333   0.66667   0.24520   |    0.00000   2.10790   1.47488    |
 | S    2   0.66667   0.33333   0.75480   |    1.82550   1.05395   4.54012    |
 *----------------------------------------------------------------------------*
  
                                ------------
                                K-POINT GRID
                                ------------
  
             Grid size =  6 x  6 x  6      Total points =  216
  
  
 *---------------------------------- MAIN ------------------------------------*
 |  Number of Wannier Functions               :                64             |
 |  Number of input Bloch states              :                64             |
 |  Output verbosity (1=low, 5=high)          :                 1             |
 |  Timing Level (1=low, 5=high)              :                 1             |
 |  Optimisation (0=memory, 3=speed)          :                 3             |
 |  Length Unit                               :               Ang             |
 |  Post-processing setup (write *.nnkp)      :                 F             |
 |  Using Gamma-only branch of algorithms     :                 F             |
 *----------------------------------------------------------------------------*
 *------------------------------- WANNIERISE ---------------------------------*
 |  Total number of iterations                :               100             |
 |  Number of CG steps before reset           :                 5             |
 |  Trial step length for line search         :             2.000             |
 |  Convergence tolerence                     :         0.100E-09             |
 |  Convergence window                        :                -1             |
 |  Iterations between writing output         :                 1             |
 |  Iterations between backing up to disk     :               100             |
 |  Write r^2_nm to file                      :                 F             |
 |  Write xyz WF centres to file              :                 F             |
 |  Use guiding centre to control phases      :                 F             |
 *----------------------------------------------------------------------------*
 *-------------------------------- PLOTTING ----------------------------------*
 |  Plotting interpolated bandstructure       :                 T             |
 |   Number of K-path sections                :                 7             |
 |   Divisions along first K-path section     :                51             |
 |   Output format                            :          'gnuplot             |
 |   Output mode                              :               s-k             |
 *----------------------------------------------------------------------------*
 |   K-space path sections:                                                   |
 |    From:  G    0.000  0.000  0.000     To:  A    0.000  0.000  0.500       |
 |    From:  A    0.000  0.000  0.500     To:  H    0.333  0.333  0.500       |
 |    From:  H    0.333  0.333  0.500     To:  K    0.333  0.333  0.000       |
 |    From:  K    0.333  0.333  0.000     To:  G    0.000  0.000  0.000       |
 |    From:  G    0.000  0.000  0.000     To:  M    0.500  0.000  0.000       |
 |    From:  M    0.500  0.000  0.000     To:  L    0.500  0.000  0.500       |
 |    From:  L    0.500  0.000  0.500     To:  H    0.333  0.333  0.500       |
 *----------------------------------------------------------------------------*
 Time to read parameters        0.016 (sec)

 *---------------------------------- K-MESH ----------------------------------*
 +----------------------------------------------------------------------------+
 |                    Distance to Nearest-Neighbour Shells                    |
 |                    ------------------------------------                    |
 |          Shell             Distance (Ang^-1)          Multiplicity         |
 |          -----             -----------------          ------------         |
 |             1                   0.174098                      2            |
 |             2                   0.331197                      6            |
 |             3                   0.348195                      2            |
 |             4                   0.374168                     12            |
 |             5                   0.480553                     12            |
 |             6                   0.522293                      2            |
 |             7                   0.573650                      6            |
 |             8                   0.599486                     12            |
 |             9                   0.618451                     12            |
 |            10                   0.662394                      6            |
 |            11                   0.671054                     12            |
 |            12                   0.684891                     12            |
 +----------------------------------------------------------------------------+
 | The b-vectors are chosen automatically                                     |
 | The following shells are used:   1,  2                                     |
 +----------------------------------------------------------------------------+
 |                        Shell   # Nearest-Neighbours                        |
 |                        -----   --------------------                        |
 |                          1               2                                 |
 |                          2               6                                 |
 +----------------------------------------------------------------------------+
 | Completeness relation is fully satisfied [Eq. (B1), PRB 56, 12847 (1997)]  |
 +----------------------------------------------------------------------------+
 |                  b_k Vectors (Ang^-1) and Weights (Ang^2)                  |
 |                  ----------------------------------------                  |
 |            No.         b_k(x)      b_k(y)      b_k(z)        w_b           |
 |            ---        --------------------------------     --------        |
 |             1         0.000000    0.000000    0.174098    16.496204        |
 |             2         0.000000    0.000000   -0.174098    16.496204        |
 |             3         0.286825    0.165598    0.000000     3.038830        |
 |             4        -0.286825   -0.165598    0.000000     3.038830        |
 |             5        -0.286825    0.165598    0.000000     3.038830        |
 |             6         0.286825   -0.165598    0.000000     3.038830        |
 |             7         0.000000   -0.331197    0.000000     3.038830        |
 |             8         0.000000    0.331197    0.000000     3.038830        |
 +----------------------------------------------------------------------------+
 |                           b_k Directions (Ang^-1)                          |
 |                           -----------------------                          |
 |            No.           x           y           z                         |
 |            ---        --------------------------------                     |
 |             1         0.000000    0.000000    0.174098                     |
 |             2         0.286825    0.165598    0.000000                     |
 |             3        -0.286825    0.165598    0.000000                     |
 |             4         0.000000   -0.331197    0.000000                     |
 +----------------------------------------------------------------------------+
  
 *============================================================================*
 |                              MEMORY ESTIMATE                               |
 |         Maximum RAM allocated during each phase of the calculation         |
 *============================================================================*
 |                            Wannierise:          274.75 Mb                  |
 *----------------------------------------------------------------------------*
  
 Starting a new Wannier90 calculation ...

 Time to get kmesh              0.052 (sec)

 Reading overlaps from wannier90.mmn    : File generated by VASP: SnS2

 Reading projections from wannier90.amn : File generated by VASP: SnS2

 Time to read overlaps         20.640 (sec)

 Writing checkpoint file wannier90.chk... done

 
 *------------------------------- WANNIERISE ---------------------------------*
 +--------------------------------------------------------------------+<-- CONV
 | Iter  Delta Spread     RMS Gradient      Spread (Ang^2)      Time  |<-- CONV
 +--------------------------------------------------------------------+<-- CONV
 
 ------------------------------------------------------------------------------
 Initial State
  WF centre and spread    1  ( -0.306266,  3.163353,  3.879310 )    14.80637031
  WF centre and spread    2  (  1.767440,  0.897294,  3.940627 )     5.93646714
  WF centre and spread    3  (  1.118144,  0.654410,  3.863039 )    10.89567879
  WF centre and spread    4  (  2.115247,  0.610296,  1.658381 )     9.97022299
  WF centre and spread    5  (  0.439675,  2.057783,  2.119475 )     6.18910495
  WF centre and spread    6  ( -1.446228,  3.169282,  0.141679 )     1.21531860
  WF centre and spread    7  (  2.876937,  0.630729, -0.005914 )     3.47568435
  WF centre and spread    8  ( -0.622606,  3.255645,  1.946570 )    11.04997554
  WF centre and spread    9  (  2.112345,  1.825751,  0.711838 )    11.04473576
  WF centre and spread   10  ( -0.100291,  2.661067,  4.611878 )     7.71289522
  WF centre and spread   11  (  0.997614,  1.485820,  1.832193 )    12.43174502
  WF centre and spread   12  ( -1.197274,  2.793575,  0.091303 )     4.21374623
  WF centre and spread   13  ( -0.082979,  1.446444,  3.720373 )     5.24821314
  WF centre and spread   14  (  2.728012,  0.301686,  4.616048 )     1.71051042
  WF centre and spread   15  (  0.331028,  0.207627,  4.103351 )     7.44389720
  WF centre and spread   16  (  1.473763,  0.902905,  5.583503 )     5.24309019
  WF centre and spread   17  (  2.428831,  0.475018,  0.890991 )     5.26604124
  WF centre and spread   18  (  3.578762,  0.245370,  1.173028 )     2.75762221
  WF centre and spread   19  ( -0.367492,  1.266729,  2.508807 )    13.60859215
  WF centre and spread   20  (  0.682271,  0.198852,  3.102973 )    12.27770344
  WF centre and spread   21  (  1.535307,  2.769781,  0.205990 )     1.11260298
  WF centre and spread   22  (  2.241589,  1.592734,  4.202459 )     1.00912918
  WF centre and spread   23  ( -1.591473,  2.625854,  4.322256 )     3.86547327
  WF centre and spread   24  (  0.376618,  1.822006,  1.411249 )     9.48387423
  WF centre and spread   25  ( -0.474993,  2.700243,  5.734870 )     4.06412531
  WF centre and spread   26  (  2.413686,  0.766529,  4.110069 )     8.12963648
  WF centre and spread   27  (  0.146757,  1.732374,  5.204962 )     5.13091430
  WF centre and spread   28  (  0.564805, -0.032295,  5.049361 )     3.00261797
  WF centre and spread   29  (  2.613856,  1.086441,  2.058773 )    13.60097170
  WF centre and spread   30  ( -1.007385,  2.246941,  0.727110 )     6.97143622
  WF centre and spread   31  (  2.879695,  1.802803,  1.477181 )    11.90120136
  WF centre and spread   32  (  2.286285,  0.354556,  3.696634 )    14.46672313
  WF centre and spread   33  (  3.215101,  0.411817,  2.374627 )    15.95793944
  WF centre and spread   34  (  0.408225,  0.833171,  5.544056 )     2.78325066
  WF centre and spread   35  (  0.035768,  2.634073,  1.995107 )     9.07754435
  WF centre and spread   36  (  1.646800,  2.750384,  1.597916 )     8.48399647
  WF centre and spread   37  (  0.797231,  2.303405,  5.548469 )     2.21293511
  WF centre and spread   38  (  0.597015,  2.197996,  4.243344 )     6.11316615
  WF centre and spread   39  (  1.308421,  1.229623,  1.256189 )     6.31974228
  WF centre and spread   40  ( -0.705897,  1.532554,  5.664060 )     3.52512434
  WF centre and spread   41  (  1.607645,  1.363575,  3.437743 )    15.07465977
  WF centre and spread   42  (  1.078108,  1.119053,  4.740387 )     1.31116269
  WF centre and spread   43  ( -1.434654,  2.347368,  3.005051 )    12.76034918
  WF centre and spread   44  ( -0.262646,  1.615581,  1.740225 )     4.24548490
  WF centre and spread   45  ( -0.692403,  2.457702,  2.465172 )    27.31790129
  WF centre and spread   46  ( -0.500295,  2.656123,  1.459249 )     7.61162101
  WF centre and spread   47  (  0.150648,  2.757767,  2.776348 )    18.71123859
  WF centre and spread   48  (  2.140289,  0.777665, -0.268034 )     7.73081568
  WF centre and spread   49  (  1.390858,  0.342387,  4.528052 )     3.58226570
  WF centre and spread   50  (  0.395300,  0.845394,  0.516367 )     1.47888192
  WF centre and spread   51  (  0.384107,  1.717870,  1.843608 )    16.21358875
  WF centre and spread   52  (  0.334495,  1.930963,  0.955585 )     5.48847684
  WF centre and spread   53  (  1.985179,  1.485357,  5.261293 )     2.07862153
  WF centre and spread   54  ( -0.290715,  2.663151,  0.785283 )     4.08850257
  WF centre and spread   55  (  3.011669,  1.521982,  0.887884 )     5.99440172
  WF centre and spread   56  ( -1.180383,  2.188167,  1.787327 )    17.21295128
  WF centre and spread   57  (  2.044975,  2.255755,  1.215600 )    14.92043131
  WF centre and spread   58  (  0.714137,  1.861291,  3.183064 )     7.95263461
  WF centre and spread   59  ( -0.690314,  2.105104,  3.617251 )    17.89934408
  WF centre and spread   60  (  0.820924,  2.503296,  0.701284 )     1.83286371
  WF centre and spread   61  (  2.839289,  0.551041,  3.307050 )    15.91588605
  WF centre and spread   62  (  1.903476,  1.051390, -0.030321 )     8.69492129
  WF centre and spread   63  (  1.458499,  0.214811,  0.118439 )     6.45260946
  WF centre and spread   64  (  1.618393,  0.792644,  2.972338 )    14.72032724
  Sum of centres and spreads ( 56.640923,100.736062,167.920380 )   528.99996097
 
      0     0.529E+03     0.0000000000      528.9999570028      22.99  <-- CONV
        O_D=      8.1149516 O_OD=    410.8523771 O_TOT=    528.9999570 <-- SPRD
 ------------------------------------------------------------------------------
 Cycle:      1
  WF centre and spread    1  ( -0.334830,  3.168171,  4.002265 )    13.05828848
  WF centre and spread    2  (  1.780469,  0.902159,  3.988209 )     4.69925113
  WF centre and spread    3  (  1.107375,  0.665078,  3.955339 )     8.81922610
  WF centre and spread    4  (  2.130312,  0.607355,  1.591784 )     8.38886096
  WF centre and spread    5  (  0.433596,  2.053222,  2.077219 )     5.18616014
  WF centre and spread    6  ( -1.458237,  3.167782,  0.138462 )     1.10409420
  WF centre and spread    7  (  2.888487,  0.614762, -0.015738 )     2.95196637
  WF centre and spread    8  ( -0.621355,  3.247806,  1.886970 )     9.07940574
  WF centre and spread    9  (  2.121566,  1.830643,  0.700732 )     8.99921652
  WF centre and spread   10  ( -0.105382,  2.686072,  4.665199 )     6.59938176
  WF centre and spread   11  (  1.001137,  1.491223,  1.750348 )    10.72303709
  WF centre and spread   12  ( -1.235726,  2.818974,  0.078701 )     3.35297029
  WF centre and spread   13  ( -0.084197,  1.448671,  3.776892 )     4.68757928
  WF centre and spread   14  (  2.729673,  0.314386,  4.641410 )     1.57602300
  WF centre and spread   15  (  0.314612,  0.185778,  4.180532 )     6.25809006
  WF centre and spread   16  (  1.451592,  0.901622,  5.565298 )     4.55088057
  WF centre and spread   17  (  2.461614,  0.472854,  0.861889 )     4.62560981
  WF centre and spread   18  (  3.578131,  0.253988,  1.141351 )     2.37220542
  WF centre and spread   19  ( -0.373889,  1.281916,  2.466508 )    12.04048900
  WF centre and spread   20  (  0.710926,  0.218631,  3.183167 )    10.80748418
  WF centre and spread   21  (  1.541409,  2.781221,  0.197719 )     1.06791973
  WF centre and spread   22  (  2.235682,  1.587871,  4.214752 )     0.91363745
  WF centre and spread   23  ( -1.597702,  2.618279,  4.345026 )     3.50337672
  WF centre and spread   24  (  0.325850,  1.835922,  1.347805 )     7.71176234
  WF centre and spread   25  ( -0.502015,  2.707478,  5.739440 )     3.70787707
  WF centre and spread   26  (  2.424139,  0.778427,  4.191700 )     6.03958243
  WF centre and spread   27  (  0.149537,  1.741966,  5.220980 )     4.60232143
  WF centre and spread   28  (  0.553482, -0.032068,  5.068524 )     2.67599254
  WF centre and spread   29  (  2.555193,  1.075842,  2.059734 )    11.72843376
  WF centre and spread   30  ( -1.021213,  2.269811,  0.710147 )     5.76980841
  WF centre and spread   31  (  2.928489,  1.797631,  1.392236 )     9.55931892
  WF centre and spread   32  (  2.278701,  0.392095,  3.795696 )    11.97095386
  WF centre and spread   33  (  3.215012,  0.439009,  2.330545 )    13.38325965
  WF centre and spread   34  (  0.403914,  0.814242,  5.549765 )     2.45957903
  WF centre and spread   35  (  0.040017,  2.636684,  1.962850 )     7.36278858
  WF centre and spread   36  (  1.638086,  2.774780,  1.522941 )     7.09204235
  WF centre and spread   37  (  0.821821,  2.319613,  5.551432 )     2.11695251
  WF centre and spread   38  (  0.620913,  2.209222,  4.278963 )     5.37058077
  WF centre and spread   39  (  1.297369,  1.222449,  1.215739 )     5.38629038
  WF centre and spread   40  ( -0.709397,  1.529254,  5.651962 )     3.34718106
  WF centre and spread   41  (  1.604006,  1.372062,  3.509797 )    12.38469042
  WF centre and spread   42  (  1.094470,  1.126869,  4.740700 )     1.20871867
  WF centre and spread   43  ( -1.469779,  2.337451,  3.049808 )    10.69231765
  WF centre and spread   44  ( -0.261620,  1.627068,  1.717382 )     3.46843918
  WF centre and spread   45  ( -0.741462,  2.439801,  2.369291 )    24.02545366
  WF centre and spread   46  ( -0.519612,  2.648687,  1.415167 )     6.23474216
  WF centre and spread   47  (  0.197361,  2.731716,  2.823100 )    15.84031569
  WF centre and spread   48  (  2.149466,  0.769276, -0.291789 )     6.44388299
  WF centre and spread   49  (  1.400387,  0.362335,  4.551659 )     3.00750264
  WF centre and spread   50  (  0.385985,  0.835865,  0.504477 )     1.37649271
  WF centre and spread   51  (  0.426058,  1.778178,  1.791540 )    13.63866218
  WF centre and spread   52  (  0.330191,  1.944845,  0.914838 )     4.26606503
  WF centre and spread   53  (  1.980981,  1.486382,  5.242757 )     1.84837770
  WF centre and spread   54  ( -0.285463,  2.657149,  0.781434 )     3.55398149
  WF centre and spread   55  (  3.024382,  1.532251,  0.849905 )     4.93519464
  WF centre and spread   56  ( -1.202480,  2.135708,  1.681852 )    14.43934476
  WF centre and spread   57  (  2.024256,  2.262240,  1.145575 )    12.60698299
  WF centre and spread   58  (  0.713819,  1.873323,  3.204584 )     6.94591333
  WF centre and spread   59  ( -0.720733,  2.051438,  3.814637 )    14.92554046
  WF centre and spread   60  (  0.841005,  2.518539,  0.686670 )     1.79376338
  WF centre and spread   61  (  2.836577,  0.546953,  3.404822 )    13.07577746
  WF centre and spread   62  (  1.891452,  1.046301, -0.085980 )     7.12632880
  WF centre and spread   63  (  1.427742,  0.213696,  0.107623 )     5.51912868
  WF centre and spread   64  (  1.618920,  0.801028,  3.024826 )    12.40723782
  Sum of centres and spreads ( 56.441075,100.929983,167.939169 )   447.41473357
 
      1    -0.816E+02    10.1709619100      447.4147296239      38.37  <-- CONV
        O_D=      9.4051774 O_OD=    327.9769239 O_TOT=    447.4147296 <-- SPRD
 Delta: O_D=  0.1290226E+01 O_OD= -0.8287545E+02 O_TOT= -0.8158523E+02 <-- DLTA
 ------------------------------------------------------------------------------
 Cycle:      2
  WF centre and spread    1  ( -0.362483,  3.176689,  4.069645 )    12.56898387
  WF centre and spread    2  (  1.786856,  0.908099,  4.007568 )     4.09555061
  WF centre and spread    3  (  1.099911,  0.671019,  4.013389 )     7.97497866
  WF centre and spread    4  (  2.141138,  0.601044,  1.550690 )     7.69323938
  WF centre and spread    5  (  0.430282,  2.051158,  2.047043 )     4.68200054
  WF centre and spread    6  ( -1.466181,  3.165743,  0.136059 )     1.00307276
  WF centre and spread    7  (  2.894948,  0.601519, -0.022100 )     2.65379700
  WF centre and spread    8  ( -0.624083,  3.240254,  1.859343 )     8.35779680
  WF centre and spread    9  (  2.125745,  1.842062,  0.687715 )     8.23999389
  WF centre and spread   10  ( -0.107010,  2.704398,  4.690917 )     6.06981316
  WF centre and spread   11  (  0.996092,  1.488985,  1.703508 )    10.13400536
  WF centre and spread   12  ( -1.261493,  2.835441,  0.071406 )     2.84887909
  WF centre and spread   13  ( -0.088341,  1.449697,  3.808486 )     4.43350626
  WF centre and spread   14  (  2.729141,  0.325203,  4.657652 )     1.48349519
  WF centre and spread   15  (  0.304356,  0.174873,  4.228980 )     5.72804590
  WF centre and spread   16  (  1.436496,  0.897763,  5.556315 )     4.20209322
  WF centre and spread   17  (  2.482990,  0.473559,  0.842823 )     4.26101274
  WF centre and spread   18  (  3.578693,  0.256827,  1.121305 )     2.11331918
  WF centre and spread   19  ( -0.375047,  1.290906,  2.426949 )    11.46807444
  WF centre and spread   20  (  0.729113,  0.230680,  3.237753 )    10.47372110
  WF centre and spread   21  (  1.547327,  2.791874,  0.190805 )     1.02550008
  WF centre and spread   22  (  2.231202,  1.584130,  4.223440 )     0.85062432
  WF centre and spread   23  ( -1.601902,  2.616568,  4.359477 )     3.30183212
  WF centre and spread   24  (  0.290931,  1.846484,  1.313871 )     6.91711286
  WF centre and spread   25  ( -0.520375,  2.713991,  5.743106 )     3.52611849
  WF centre and spread   26  (  2.427773,  0.786124,  4.227351 )     5.07603024
  WF centre and spread   27  (  0.151721,  1.751051,  5.236050 )     4.35576874
  WF centre and spread   28  (  0.545734, -0.031988,  5.080402 )     2.43955654
  WF centre and spread   29  (  2.526365,  1.071163,  2.047638 )    11.07875138
  WF centre and spread   30  ( -1.030445,  2.286402,  0.694334 )     5.11658430
  WF centre and spread   31  (  2.966451,  1.790038,  1.353328 )     8.44971825
  WF centre and spread   32  (  2.269494,  0.418826,  3.847668 )    10.96396584
  WF centre and spread   33  (  3.220223,  0.452988,  2.312037 )    12.61474849
  WF centre and spread   34  (  0.400764,  0.801405,  5.555383 )     2.27211807
  WF centre and spread   35  (  0.047081,  2.636341,  1.939820 )     6.57868007
  WF centre and spread   36  (  1.634456,  2.788186,  1.474706 )     6.45022731
  WF centre and spread   37  (  0.840453,  2.332109,  5.553456 )     2.06601679
  WF centre and spread   38  (  0.638071,  2.215844,  4.304256 )     5.00460784
  WF centre and spread   39  (  1.287455,  1.220023,  1.197083 )     4.92201608
  WF centre and spread   40  ( -0.711936,  1.524620,  5.645721 )     3.27672496
  WF centre and spread   41  (  1.601109,  1.372038,  3.557071 )    11.45801685
  WF centre and spread   42  (  1.107346,  1.132804,  4.741163 )     1.14527937
  WF centre and spread   43  ( -1.488440,  2.332565,  3.057510 )    10.08233489
  WF centre and spread   44  ( -0.259222,  1.631709,  1.707792 )     3.05655430
  WF centre and spread   45  ( -0.716451,  2.457825,  2.378665 )    21.65952164
  WF centre and spread   46  ( -0.529191,  2.646796,  1.395771 )     5.59767618
  WF centre and spread   47  (  0.239522,  2.719866,  2.845990 )    14.84557503
  WF centre and spread   48  (  2.158900,  0.757551, -0.300267 )     5.85150315
  WF centre and spread   49  (  1.410072,  0.375767,  4.563939 )     2.68259595
  WF centre and spread   50  (  0.379332,  0.827905,  0.494589 )     1.30774730
  WF centre and spread   51  (  0.442546,  1.819203,  1.756253 )    12.65955051
  WF centre and spread   52  (  0.326304,  1.952980,  0.899118 )     3.68933224
  WF centre and spread   53  (  1.978275,  1.484547,  5.232267 )     1.71827325
  WF centre and spread   54  ( -0.281603,  2.652643,  0.780146 )     3.26531207
  WF centre and spread   55  (  3.033324,  1.543885,  0.835320 )     4.38976748
  WF centre and spread   56  ( -1.204068,  2.097385,  1.612577 )    13.35527633
  WF centre and spread   57  (  2.013374,  2.268677,  1.095990 )    11.72615953
  WF centre and spread   58  (  0.715579,  1.876208,  3.215393 )     6.63030047
  WF centre and spread   59  ( -0.736492,  2.037470,  3.908005 )    14.03943696
  WF centre and spread   60  (  0.857655,  2.530338,  0.674811 )     1.79642123
  WF centre and spread   61  (  2.845480,  0.537312,  3.463801 )    12.17658260
  WF centre and spread   62  (  1.883881,  1.052330, -0.107170 )     6.53581045
  WF centre and spread   63  (  1.402039,  0.208552,  0.098513 )     5.06654673
  WF centre and spread   64  (  1.620239,  0.809310,  3.056741 )    11.66742037
  Sum of centres and spreads ( 56.411476,101.107764,167.959370 )   413.17507683
 
      2    -0.342E+02    10.9226992257      413.1750728751      53.40  <-- CONV
        O_D=      5.4546934 O_OD=    297.6877512 O_TOT=    413.1750729 <-- SPRD
 Delta: O_D= -0.3950484E+01 O_OD= -0.3028917E+02 O_TOT= -0.3423966E+02 <-- DLTA
 ------------------------------------------------------------------------------
 Cycle:      3
  WF centre and spread    1  ( -0.391103,  3.185027,  4.128594 )    11.72699706
  WF centre and spread    2  (  1.790086,  0.913386,  4.023925 )     3.54847896
  WF centre and spread    3  (  1.093796,  0.675514,  4.067243 )     7.10299607
  WF centre and spread    4  (  2.150349,  0.591348,  1.515725 )     6.96609877
  WF centre and spread    5  (  0.427418,  2.048719,  2.022815 )     4.22179851
  WF centre and spread    6  ( -1.472944,  3.163518,  0.133701 )     0.95695775
  WF centre and spread    7  (  2.899998,  0.589775, -0.027079 )     2.43696954
  WF centre and spread    8  ( -0.627120,  3.232950,  1.833500 )     7.56003468
  WF centre and spread    9  (  2.128464,  1.854836,  0.671904 )     7.30771408
  WF centre and spread   10  ( -0.107081,  2.719118,  4.715753 )     5.52063800
  WF centre and spread   11  (  0.994424,  1.478681,  1.667563 )     9.30545822
  WF centre and spread   12  ( -1.283399,  2.848589,  0.066246 )     2.48112182
  WF centre and spread   13  ( -0.091467,  1.449939,  3.833718 )     4.16751869
  WF centre and spread   14  (  2.727699,  0.335199,  4.671562 )     1.42607599
  WF centre and spread   15  (  0.292263,  0.166332,  4.274850 )     5.20073310
  WF centre and spread   16  (  1.423133,  0.891617,  5.550618 )     3.90549201
  WF centre and spread   17  (  2.500768,  0.475227,  0.827146 )     3.95795057
  WF centre and spread   18  (  3.579339,  0.256581,  1.105461 )     1.90570737
  WF centre and spread   19  ( -0.373648,  1.301481,  2.386362 )    10.60818374
  WF centre and spread   20  (  0.743532,  0.243938,  3.289036 )     9.91534421
  WF centre and spread   21  (  1.553890,  2.803092,  0.183599 )     0.98897587
  WF centre and spread   22  (  2.227229,  1.581078,  4.231619 )     0.81297509
  WF centre and spread   23  ( -1.606550,  2.617493,  4.374168 )     3.15247565
  WF centre and spread   24  (  0.264888,  1.853970,  1.287864 )     6.14864108
  WF centre and spread   25  ( -0.534772,  2.720146,  5.747497 )     3.35974052
  WF centre and spread   26  (  2.429438,  0.792478,  4.250221 )     4.22238676
  WF centre and spread   27  (  0.153855,  1.759363,  5.252498 )     4.12662657
  WF centre and spread   28  (  0.538067, -0.032153,  5.091082 )     2.25346811
  WF centre and spread   29  (  2.506790,  1.069495,  2.043053 )    10.14511519
  WF centre and spread   30  ( -1.040351,  2.304230,  0.677107 )     4.52971672
  WF centre and spread   31  (  2.997234,  1.781602,  1.323119 )     7.35014576
  WF centre and spread   32  (  2.261960,  0.442595,  3.896794 )     9.71314249
  WF centre and spread   33  (  3.223365,  0.469485,  2.291613 )    11.32029345
  WF centre and spread   34  (  0.396795,  0.790672,  5.561233 )     2.11140400
  WF centre and spread   35  (  0.051490,  2.634372,  1.919482 )     5.71581623
  WF centre and spread   36  (  1.633782,  2.798151,  1.427179 )     5.68002767
  WF centre and spread   37  (  0.856871,  2.343584,  5.555100 )     2.03743290
  WF centre and spread   38  (  0.652709,  2.221136,  4.326770 )     4.64285225
  WF centre and spread   39  (  1.276524,  1.219263,  1.182008 )     4.54570968
  WF centre and spread   40  ( -0.713639,  1.518571,  5.640563 )     3.23044908
  WF centre and spread   41  (  1.590361,  1.367076,  3.618749 )    10.33882296
  WF centre and spread   42  (  1.118559,  1.137865,  4.742563 )     1.10199003
  WF centre and spread   43  ( -1.500316,  2.328562,  3.073025 )     9.33139292
  WF centre and spread   44  ( -0.255746,  1.634443,  1.700253 )     2.69390020
  WF centre and spread   45  ( -0.688674,  2.477763,  2.330126 )    19.21819093
  WF centre and spread   46  ( -0.540892,  2.646833,  1.378118 )     4.84351880
  WF centre and spread   47  (  0.280381,  2.713541,  2.859381 )    13.48826375
  WF centre and spread   48  (  2.165524,  0.745357, -0.305373 )     5.36660728
  WF centre and spread   49  (  1.418486,  0.386328,  4.573662 )     2.42790391
  WF centre and spread   50  (  0.373086,  0.819947,  0.485557 )     1.24758010
  WF centre and spread   51  (  0.451181,  1.855240,  1.725803 )    11.34020369
  WF centre and spread   52  (  0.324624,  1.959168,  0.885477 )     3.16741493
  WF centre and spread   53  (  1.976190,  1.482085,  5.223607 )     1.62303052
  WF centre and spread   54  ( -0.281086,  2.649587,  0.777866 )     2.95739200
  WF centre and spread   55  (  3.038456,  1.558416,  0.821354 )     3.93187017
  WF centre and spread   56  ( -1.198406,  2.065649,  1.557362 )    12.21437221
  WF centre and spread   57  (  2.003822,  2.283250,  1.042240 )    10.44005996
  WF centre and spread   58  (  0.715451,  1.875111,  3.232072 )     6.17630074
  WF centre and spread   59  ( -0.748189,  2.032199,  3.978954 )    12.71026092
  WF centre and spread   60  (  0.874169,  2.541136,  0.661079 )     1.78022154
  WF centre and spread   61  (  2.860730,  0.531081,  3.515851 )    10.89830767
  WF centre and spread   62  (  1.878513,  1.058432, -0.124043 )     5.83565004
  WF centre and spread   63  (  1.377494,  0.201566,  0.088851 )     4.65340890
  WF centre and spread   64  (  1.621023,  0.821525,  3.093927 )    10.70609946
  Sum of centres and spreads ( 56.388822,101.282559,167.957668 )   374.80242789
 
      3    -0.384E+02     9.2413377088      374.8024239147      68.43  <-- CONV
        O_D=      4.8058129 O_OD=    259.9639827 O_TOT=    374.8024239 <-- SPRD
 Delta: O_D= -0.6488804E+00 O_OD= -0.3772377E+02 O_TOT= -0.3837265E+02 <-- DLTA
 ------------------------------------------------------------------------------
 Cycle:      4
  WF centre and spread    1  ( -0.421191,  3.192563,  4.181887 )    11.27225683
  WF centre and spread    2  (  1.792400,  0.917123,  4.034676 )     3.24162230
  WF centre and spread    3  (  1.091520,  0.681011,  4.112259 )     6.59013976
  WF centre and spread    4  (  2.158906,  0.579305,  1.489846 )     6.56941677
  WF centre and spread    5  (  0.424541,  2.045992,  2.007541 )     3.91390212
  WF centre and spread    6  ( -1.479336,  3.161507,  0.131626 )     0.91028774
  WF centre and spread    7  (  2.904183,  0.580003, -0.031443 )     2.28825799
  WF centre and spread    8  ( -0.628518,  3.229838,  1.813459 )     7.06738227
  WF centre and spread    9  (  2.133210,  1.868938,  0.659723 )     6.80038104
  WF centre and spread   10  ( -0.106024,  2.728348,  4.737260 )     5.21518139
  WF centre and spread   11  (  0.992442,  1.465155,  1.646658 )     8.77518307
  WF centre and spread   12  ( -1.301500,  2.859119,  0.062025 )     2.23827577
  WF centre and spread   13  ( -0.093460,  1.449323,  3.854185 )     4.03269671
  WF centre and spread   14  (  2.725799,  0.343922,  4.684116 )     1.39083466
  WF centre and spread   15  (  0.280272,  0.161668,  4.313660 )     4.87832392
  WF centre and spread   16  (  1.411443,  0.885313,  5.547518 )     3.74474935
  WF centre and spread   17  (  2.515539,  0.477145,  0.814271 )     3.76788455
  WF centre and spread   18  (  3.580185,  0.255009,  1.092081 )     1.77762767
  WF centre and spread   19  ( -0.367052,  1.311110,  2.353372 )    10.13109676
  WF centre and spread   20  (  0.750629,  0.257801,  3.331806 )     9.65627664
  WF centre and spread   21  (  1.560509,  2.814188,  0.176684 )     0.96011110
  WF centre and spread   22  (  2.223961,  1.578670,  4.239125 )     0.78496930
  WF centre and spread   23  ( -1.610507,  2.621161,  4.389772 )     3.07151050
  WF centre and spread   24  (  0.246535,  1.859156,  1.270541 )     5.65376637
  WF centre and spread   25  ( -0.544833,  2.726226,  5.752402 )     3.25032775
  WF centre and spread   26  (  2.429908,  0.796001,  4.266184 )     3.74570448
  WF centre and spread   27  (  0.154706,  1.766724,  5.266039 )     4.01300541
  WF centre and spread   28  (  0.531156, -0.031904,  5.101518 )     2.13242420
  WF centre and spread   29  (  2.498708,  1.073707,  2.042342 )     9.62754116
  WF centre and spread   30  ( -1.050050,  2.321776,  0.663944 )     4.17912344
  WF centre and spread   31  (  3.020897,  1.771432,  1.297180 )     6.68750382
  WF centre and spread   32  (  2.257608,  0.461056,  3.930763 )     9.03248504
  WF centre and spread   33  (  3.225611,  0.475593,  2.267570 )    10.53460347
  WF centre and spread   34  (  0.392528,  0.782257,  5.566854 )     2.00624180
  WF centre and spread   35  (  0.054500,  2.630865,  1.897745 )     5.16431624
  WF centre and spread   36  (  1.634939,  2.805454,  1.386113 )     5.24318030
  WF centre and spread   37  (  0.870985,  2.354125,  5.556919 )     2.00664921
  WF centre and spread   38  (  0.665044,  2.224873,  4.343977 )     4.43622011
  WF centre and spread   39  (  1.265348,  1.218854,  1.171055 )     4.35157346
  WF centre and spread   40  ( -0.714633,  1.511728,  5.637321 )     3.22444842
  WF centre and spread   41  (  1.579879,  1.362402,  3.681975 )     9.73045295
  WF centre and spread   42  (  1.127967,  1.142095,  4.744762 )     1.07019502
  WF centre and spread   43  ( -1.506436,  2.327301,  3.089113 )     8.90211422
  WF centre and spread   44  ( -0.251996,  1.634435,  1.696485 )     2.46731795
  WF centre and spread   45  ( -0.662995,  2.483634,  2.284918 )    17.87405191
  WF centre and spread   46  ( -0.552021,  2.648146,  1.361806 )     4.40952826
  WF centre and spread   47  (  0.314385,  2.712010,  2.869113 )    12.65018242
  WF centre and spread   48  (  2.168045,  0.735284, -0.310291 )     5.08701222
  WF centre and spread   49  (  1.425453,  0.394779,  4.580760 )     2.26940789
  WF centre and spread   50  (  0.367430,  0.812282,  0.478085 )     1.20140027
  WF centre and spread   51  (  0.455901,  1.880728,  1.699006 )    10.47723700
  WF centre and spread   52  (  0.325042,  1.962951,  0.878757 )     2.85720817
  WF centre and spread   53  (  1.975116,  1.479876,  5.216818 )     1.56497048
  WF centre and spread   54  ( -0.282148,  2.648114,  0.778191 )     2.77316535
  WF centre and spread   55  (  3.041263,  1.572100,  0.814992 )     3.69589152
  WF centre and spread   56  ( -1.185878,  2.041128,  1.515243 )    11.53330874
  WF centre and spread   57  (  1.998975,  2.299437,  0.988348 )     9.58944621
  WF centre and spread   58  (  0.716457,  1.871473,  3.247741 )     5.94870701
  WF centre and spread   59  ( -0.751195,  2.028126,  4.027432 )    12.07071269
  WF centre and spread   60  (  0.890046,  2.551052,  0.647259 )     1.76891058
  WF centre and spread   61  (  2.878033,  0.520812,  3.551760 )    10.15901916
  WF centre and spread   62  (  1.875388,  1.065261, -0.136785 )     5.49876144
  WF centre and spread   63  (  1.355245,  0.194287,  0.082263 )     4.43519343
  WF centre and spread   64  (  1.624988,  0.832606,  3.134416 )    10.17042038
  Sum of centres and spreads ( 56.403852,101.412454,167.982742 )   352.57209816
 
      4    -0.222E+02     6.9608515854      352.5720941803      83.47  <-- CONV
        O_D=      3.7939808 O_OD=    238.7454850 O_TOT=    352.5720942 <-- SPRD
 Delta: O_D= -0.1011832E+01 O_OD= -0.2121850E+02 O_TOT= -0.2223033E+02 <-- DLTA
 ------------------------------------------------------------------------------
 Cycle:      5
  WF centre and spread    1  ( -0.452892,  3.200069,  4.229078 )    10.93620128
  WF centre and spread    2  (  1.794328,  0.920089,  4.041653 )     3.02003113
  WF centre and spread    3  (  1.092412,  0.687326,  4.152503 )     6.23397067
  WF centre and spread    4  (  2.168053,  0.565974,  1.467720 )     6.27794953
  WF centre and spread    5  (  0.421444,  2.043683,  1.992542 )     3.68903850
  WF centre and spread    6  ( -1.485853,  3.159592,  0.129385 )     0.89115937
  WF centre and spread    7  (  2.907844,  0.570861, -0.035011 )     2.20108135
  WF centre and spread    8  ( -0.629746,  3.228567,  1.795807 )     6.67083324
  WF centre and spread    9  (  2.136905,  1.884294,  0.651626 )     6.42641515
  WF centre and spread   10  ( -0.105094,  2.733394,  4.753661 )     4.99590032
  WF centre and spread   11  (  0.988748,  1.452417,  1.632036 )     8.39021250
  WF centre and spread   12  ( -1.318581,  2.868125,  0.058528 )     2.07273358
  WF centre and spread   13  ( -0.094982,  1.449208,  3.873528 )     3.93884258
  WF centre and spread   14  (  2.723574,  0.352180,  4.696459 )     1.38325435
  WF centre and spread   15  (  0.268889,  0.158591,  4.348911 )     4.64059526
  WF centre and spread   16  (  1.399978,  0.878569,  5.544560 )     3.64489376
  WF centre and spread   17  (  2.529102,  0.479867,  0.801791 )     3.65371912
  WF centre and spread   18  (  3.581682,  0.252748,  1.078405 )     1.70120533
  WF centre and spread   19  ( -0.356849,  1.319204,  2.323418 )     9.74911839
  WF centre and spread   20  (  0.755398,  0.270842,  3.374067 )     9.49106752
  WF centre and spread   21  (  1.567440,  2.825573,  0.169826 )     0.94420099
  WF centre and spread   22  (  2.220935,  1.576620,  4.246349 )     0.76986124
  WF centre and spread   23  ( -1.614581,  2.626628,  4.405974 )     3.03517779
  WF centre and spread   24  (  0.232435,  1.863371,  1.258198 )     5.26484302
  WF centre and spread   25  ( -0.553108,  2.732108,  5.757158 )     3.19770747
  WF centre and spread   26  (  2.429576,  0.796378,  4.278605 )     3.39168382
  WF centre and spread   27  (  0.154336,  1.773781,  5.277336 )     3.97076550
  WF centre and spread   28  (  0.523814, -0.031580,  5.112377 )     2.05467444
  WF centre and spread   29  (  2.495672,  1.081085,  2.038743 )     9.24898391
  WF centre and spread   30  ( -1.060773,  2.339484,  0.651532 )     3.93700501
  WF centre and spread   31  (  3.040058,  1.761509,  1.275340 )     6.16331085
  WF centre and spread   32  (  2.255624,  0.476256,  3.958303 )     8.51680502
  WF centre and spread   33  (  3.228272,  0.476824,  2.238711 )     9.87914246
  WF centre and spread   34  (  0.387540,  0.774924,  5.571520 )     1.94178759
  WF centre and spread   35  (  0.057498,  2.627346,  1.876356 )     4.69507224
  WF centre and spread   36  (  1.637779,  2.813726,  1.344816 )     4.90067982
  WF centre and spread   37  (  0.884148,  2.364628,  5.558325 )     2.00946714
  WF centre and spread   38  (  0.675910,  2.228499,  4.356368 )     4.30396920
  WF centre and spread   39  (  1.254483,  1.218608,  1.162426 )     4.21789164
  WF centre and spread   40  ( -0.715744,  1.504292,  5.635826 )     3.26940000
  WF centre and spread   41  (  1.568966,  1.357445,  3.740786 )     9.28290707
  WF centre and spread   42  (  1.136665,  1.146012,  4.747187 )     1.06198633
  WF centre and spread   43  ( -1.509996,  2.326143,  3.104397 )     8.58645802
  WF centre and spread   44  ( -0.248361,  1.633031,  1.694427 )     2.30445035
  WF centre and spread   45  ( -0.648318,  2.481567,  2.235146 )    16.97035202
  WF centre and spread   46  ( -0.562417,  2.649500,  1.346683 )     4.03407682
  WF centre and spread   47  (  0.342817,  2.712450,  2.875926 )    12.02790117
  WF centre and spread   48  (  2.167657,  0.727495, -0.314737 )     4.91243561
  WF centre and spread   49  (  1.431337,  0.402572,  4.587239 )     2.18079909
  WF centre and spread   50  (  0.361825,  0.804127,  0.470520 )     1.18017629
  WF centre and spread   51  (  0.458575,  1.901026,  1.672277 )     9.80631391
  WF centre and spread   52  (  0.326751,  1.965775,  0.875255 )     2.64289300
  WF centre and spread   53  (  1.974526,  1.477702,  5.210524 )     1.54349691
  WF centre and spread   54  ( -0.283913,  2.647208,  0.780570 )     2.62559565
  WF centre and spread   55  (  3.042817,  1.584633,  0.812231 )     3.54000708
  WF centre and spread   56  ( -1.171166,  2.017200,  1.476740 )    11.10417544
  WF centre and spread   57  (  1.997068,  2.318775,  0.935716 )     8.83688473
  WF centre and spread   58  (  0.717282,  1.868032,  3.259936 )     5.78648535
  WF centre and spread   59  ( -0.754977,  2.023613,  4.064698 )    11.60894070
  WF centre and spread   60  (  0.906358,  2.560976,  0.633036 )     1.77948267
  WF centre and spread   61  (  2.893819,  0.510346,  3.579580 )     9.61602368
  WF centre and spread   62  (  1.874034,  1.072922, -0.146793 )     5.24631371
  WF centre and spread   63  (  1.332985,  0.187030,  0.077885 )     4.29621831
  WF centre and spread   64  (  1.630661,  0.844352,  3.170833 )     9.73430389
  Sum of centres and spreads ( 56.410666,101.525594,167.974813 )   336.42932987
 
      5    -0.161E+02     5.9694692141      336.4293258792      98.57  <-- CONV
        O_D=      3.4991779 O_OD=    222.8975197 O_TOT=    336.4293259 <-- SPRD
 Delta: O_D= -0.2948030E+00 O_OD= -0.1584797E+02 O_TOT= -0.1614277E+02 <-- DLTA
 ------------------------------------------------------------------------------
 Cycle:      6
  WF centre and spread    1  ( -0.483863,  3.209559,  4.270513 )    10.67881067
  WF centre and spread    2  (  1.796246,  0.923297,  4.046471 )     2.85255839
  WF centre and spread    3  (  1.095618,  0.695710,  4.188740 )     5.98518487
  WF centre and spread    4  (  2.177679,  0.551616,  1.450199 )     6.10254089
  WF centre and spread    5  (  0.418114,  2.041411,  1.978070 )     3.50469974
  WF centre and spread    6  ( -1.492646,  3.157722,  0.126958 )     0.87577771
  WF centre and spread    7  (  2.911161,  0.561804, -0.038009 )     2.14479326
  WF centre and spread    8  ( -0.631268,  3.228027,  1.778051 )     6.35320946
  WF centre and spread    9  (  2.138260,  1.900886,  0.643659 )     6.14666908
  WF centre and spread   10  ( -0.104756,  2.735471,  4.767012 )     4.84836906
  WF centre and spread   11  (  0.985205,  1.441298,  1.622566 )     8.13281417
  WF centre and spread   12  ( -1.335368,  2.876280,  0.056034 )     1.96101864
  WF centre and spread   13  ( -0.096284,  1.449693,  3.890433 )     3.88987579
  WF centre and spread   14  (  2.721122,  0.360101,  4.708228 )     1.39029713
  WF centre and spread   15  (  0.258270,  0.156290,  4.381468 )     4.49332463
  WF centre and spread   16  (  1.388050,  0.871098,  5.541472 )     3.59371378
  WF centre and spread   17  (  2.541982,  0.482861,  0.790450 )     3.58557058
  WF centre and spread   18  (  3.583793,  0.249701,  1.064600 )     1.64433009
  WF centre and spread   19  ( -0.344636,  1.324318,  2.296128 )     9.50014161
  WF centre and spread   20  (  0.760545,  0.284581,  3.414151 )     9.39828318
  WF centre and spread   21  (  1.574831,  2.837246,  0.162968 )     0.93166182
  WF centre and spread   22  (  2.217992,  1.574853,  4.253272 )     0.76055343
  WF centre and spread   23  ( -1.619087,  2.633587,  4.421499 )     3.02538454
  WF centre and spread   24  (  0.222125,  1.866035,  1.249873 )     4.97014634
  WF centre and spread   25  ( -0.560352,  2.737424,  5.761925 )     3.17365778
  WF centre and spread   26  (  2.428950,  0.795564,  4.289506 )     3.14326778
  WF centre and spread   27  (  0.153045,  1.779984,  5.286950 )     3.96991683
  WF centre and spread   28  (  0.515862, -0.031290,  5.123017 )     2.00022567
  WF centre and spread   29  (  2.495065,  1.088241,  2.033965 )     8.98486103
  WF centre and spread   30  ( -1.072947,  2.357921,  0.638892 )     3.76207757
  WF centre and spread   31  (  3.055551,  1.751733,  1.257424 )     5.80012917
  WF centre and spread   32  (  2.255148,  0.489078,  3.981233 )     8.11894358
  WF centre and spread   33  (  3.229832,  0.476896,  2.204572 )     9.27927877
  WF centre and spread   34  (  0.381697,  0.768301,  5.575167 )     1.90054708
  WF centre and spread   35  (  0.061430,  2.624501,  1.855810 )     4.32381087
  WF centre and spread   36  (  1.642636,  2.823206,  1.302798 )     4.66000927
  WF centre and spread   37  (  0.897079,  2.375151,  5.559115 )     2.02615222
  WF centre and spread   38  (  0.685803,  2.232931,  4.364746 )     4.21807687
  WF centre and spread   39  (  1.244984,  1.218267,  1.155127 )     4.14185122
  WF centre and spread   40  ( -0.716769,  1.495766,  5.634718 )     3.33006764
  WF centre and spread   41  (  1.558441,  1.354433,  3.794662 )     8.95587113
  WF centre and spread   42  (  1.144963,  1.149678,  4.749594 )     1.06193423
  WF centre and spread   43  ( -1.511902,  2.324215,  3.119788 )     8.34826238
  WF centre and spread   44  ( -0.244827,  1.631138,  1.693398 )     2.17944489
  WF centre and spread   45  ( -0.645701,  2.470233,  2.175662 )    16.30939024
  WF centre and spread   46  ( -0.571947,  2.650461,  1.332689 )     3.76970716
  WF centre and spread   47  (  0.367617,  2.713364,  2.879392 )    11.50111409
  WF centre and spread   48  (  2.166185,  0.720849, -0.318978 )     4.79397847
  WF centre and spread   49  (  1.436366,  0.409828,  4.592564 )     2.12517362
  WF centre and spread   50  (  0.356116,  0.795110,  0.462804 )     1.16662959
  WF centre and spread   51  (  0.460058,  1.918975,  1.650421 )     9.29578395
  WF centre and spread   52  (  0.329668,  1.968005,  0.873624 )     2.47840022
  WF centre and spread   53  (  1.974354,  1.475505,  5.204155 )     1.53572923
  WF centre and spread   54  ( -0.286071,  2.646829,  0.784264 )     2.51068369
  WF centre and spread   55  (  3.044137,  1.595737,  0.811872 )     3.43693812
  WF centre and spread   56  ( -1.159964,  1.994627,  1.437578 )    10.84353411
  WF centre and spread   57  (  1.997601,  2.343367,  0.882599 )     8.15763048
  WF centre and spread   58  (  0.717297,  1.865954,  3.269946 )     5.66247554
  WF centre and spread   59  ( -0.758824,  2.016797,  4.095350 )    11.28087997
  WF centre and spread   60  (  0.923451,  2.571175,  0.618470 )     1.79085302
  WF centre and spread   61  (  2.905580,  0.502283,  3.600828 )     9.20541031
  WF centre and spread   62  (  1.874249,  1.081574, -0.155573 )     5.08820840
  WF centre and spread   63  (  1.309534,  0.179284,  0.074396 )     4.20780855
  WF centre and spread   64  (  1.637089,  0.858190,  3.202692 )     9.37037241
  Sum of centres and spreads ( 56.403571,101.634732,167.921969 )   324.67881602
 
      6    -0.118E+02     5.0757265471      324.6788120200     113.70  <-- CONV
        O_D=      3.1499506 O_OD=    211.4962331 O_TOT=    324.6788120 <-- SPRD
 Delta: O_D= -0.3492273E+00 O_OD= -0.1140129E+02 O_TOT= -0.1175051E+02 <-- DLTA
 ------------------------------------------------------------------------------
 Cycle:      7
  WF centre and spread    1  ( -0.494628,  3.211526,  4.285423 )    10.32886201
  WF centre and spread    2  (  1.797351,  0.923783,  4.047822 )     2.73558008
  WF centre and spread    3  (  1.097393,  0.699888,  4.201786 )     5.70445556
  WF centre and spread    4  (  2.180146,  0.546387,  1.445553 )     5.90334099
  WF centre and spread    5  (  0.417006,  2.039832,  1.972964 )     3.34976655
  WF centre and spread    6  ( -1.495280,  3.157263,  0.126024 )     0.84624993
  WF centre and spread    7  (  2.912161,  0.558715, -0.038669 )     2.07303244
  WF centre and spread    8  ( -0.633971,  3.228350,  1.771957 )     6.07994576
  WF centre and spread    9  (  2.136519,  1.908381,  0.640098 )     5.90149862
  WF centre and spread   10  ( -0.104608,  2.735310,  4.770786 )     4.70611987
  WF centre and spread   11  (  0.985051,  1.438357,  1.622591 )     7.87127491
  WF centre and spread   12  ( -1.341480,  2.879055,  0.054829 )     1.84907053
  WF centre and spread   13  ( -0.096051,  1.450260,  3.895585 )     3.78779367
  WF centre and spread   14  (  2.720322,  0.362595,  4.712360 )     1.35482012
  WF centre and spread   15  (  0.254339,  0.155373,  4.393237 )     4.30562251
  WF centre and spread   16  (  1.382581,  0.868254,  5.540232 )     3.49867834
  WF centre and spread   17  (  2.546595,  0.484094,  0.786282 )     3.45800430
  WF centre and spread   18  (  3.584760,  0.248907,  1.059873 )     1.56293929
  WF centre and spread   19  ( -0.340132,  1.323828,  2.287942 )     9.25578535
  WF centre and spread   20  (  0.762401,  0.292142,  3.427356 )     9.16611141
  WF centre and spread   21  (  1.577730,  2.841538,  0.160295 )     0.90694266
  WF centre and spread   22  (  2.217028,  1.574484,  4.255737 )     0.74288558
  WF centre and spread   23  ( -1.620610,  2.637456,  4.427088 )     2.94017485
  WF centre and spread   24  (  0.220663,  1.868023,  1.250359 )     4.74185270
  WF centre and spread   25  ( -0.562781,  2.738635,  5.763862 )     3.10231530
  WF centre and spread   26  (  2.429043,  0.794538,  4.294154 )     2.95445756
  WF centre and spread   27  (  0.152309,  1.781093,  5.290147 )     3.88322992
  WF centre and spread   28  (  0.513027, -0.031051,  5.126685 )     1.92620087
  WF centre and spread   29  (  2.495258,  1.091720,  2.031935 )     8.71702175
  WF centre and spread   30  ( -1.078315,  2.366077,  0.633737 )     3.57602591
  WF centre and spread   31  (  3.060275,  1.747339,  1.254101 )     5.52618592
  WF centre and spread   32  (  2.255080,  0.493408,  3.987522 )     7.80143853
  WF centre and spread   33  (  3.230375,  0.476826,  2.192662 )     8.84844428
  WF centre and spread   34  (  0.378856,  0.766357,  5.576413 )     1.83858447
  WF centre and spread   35  (  0.063836,  2.624619,  1.850580 )     4.07709953
  WF centre and spread   36  (  1.645978,  2.828577,  1.286879 )     4.40804371
  WF centre and spread   37  (  0.901762,  2.379142,  5.559173 )     1.97247169
  WF centre and spread   38  (  0.688427,  2.235149,  4.365724 )     4.10941867
  WF centre and spread   39  (  1.242747,  1.217947,  1.152719 )     4.01063773
  WF centre and spread   40  ( -0.716905,  1.492084,  5.634306 )     3.27468156
  WF centre and spread   41  (  1.554274,  1.355058,  3.815205 )     8.63637576
  WF centre and spread   42  (  1.147553,  1.150908,  4.750810 )     1.03264730
  WF centre and spread   43  ( -1.511435,  2.323574,  3.124681 )     8.07177334
  WF centre and spread   44  ( -0.243676,  1.630377,  1.693128 )     2.09700079
  WF centre and spread   45  ( -0.642790,  2.461756,  2.152817 )    15.77406246
  WF centre and spread   46  ( -0.575661,  2.650177,  1.328913 )     3.57726879
  WF centre and spread   47  (  0.377072,  2.715914,  2.877353 )    11.03963588
  WF centre and spread   48  (  2.165226,  0.718597, -0.319019 )     4.65816165
  WF centre and spread   49  (  1.437452,  0.412384,  4.594697 )     2.04483700
  WF centre and spread   50  (  0.354058,  0.791264,  0.460005 )     1.12993440
  WF centre and spread   51  (  0.461810,  1.926542,  1.645116 )     8.93940229
  WF centre and spread   52  (  0.331048,  1.969296,  0.873960 )     2.35389088
  WF centre and spread   53  (  1.974284,  1.474770,  5.202129 )     1.49876663
  WF centre and spread   54  ( -0.287381,  2.647531,  0.785486 )     2.41342132
  WF centre and spread   55  (  3.045324,  1.598894,  0.812139 )     3.29650005
  WF centre and spread   56  ( -1.157902,  1.986726,  1.420811 )    10.54140740
  WF centre and spread   57  (  1.998019,  2.354439,  0.863156 )     7.61974498
  WF centre and spread   58  (  0.716909,  1.865463,  3.272081 )     5.49180832
  WF centre and spread   59  ( -0.759980,  2.012213,  4.105538 )    10.92479613
  WF centre and spread   60  (  0.930473,  2.575406,  0.612783 )     1.75389524
  WF centre and spread   61  (  2.908988,  0.502501,  3.609477 )     8.82974784
  WF centre and spread   62  (  1.874303,  1.085757, -0.159660 )     4.91032749
  WF centre and spread   63  (  1.299907,  0.176236,  0.073472 )     4.06137406
  WF centre and spread   64  (  1.640358,  0.865330,  3.216411 )     9.01444593
  Sum of centres and spreads ( 56.402491,101.687371,167.909600 )   312.80829141
 
      7    -0.119E+02     4.5279600915      312.8082874017     128.51  <-- CONV
        O_D=      2.9180305 O_OD=    199.8576286 O_TOT=    312.8082874 <-- SPRD
 Delta: O_D= -0.2319201E+00 O_OD= -0.1163860E+02 O_TOT= -0.1187052E+02 <-- DLTA
 ------------------------------------------------------------------------------
 Cycle:      8
  WF centre and spread    1  ( -0.518734,  3.217953,  4.311184 )    10.12108974
  WF centre and spread    2  (  1.799835,  0.925263,  4.048182 )     2.66893409
  WF centre and spread    3  (  1.102700,  0.708305,  4.224428 )     5.52445263
  WF centre and spread    4  (  2.185390,  0.533868,  1.439140 )     5.81718546
  WF centre and spread    5  (  0.414963,  2.036504,  1.963056 )     3.21800683
  WF centre and spread    6  ( -1.501266,  3.156183,  0.123870 )     0.83427682
  WF centre and spread    7  (  2.914499,  0.551440, -0.039746 )     2.05507037
  WF centre and spread    8  ( -0.640748,  3.228251,  1.761773 )     5.84851829
  WF centre and spread    9  (  2.132213,  1.925647,  0.632708 )     5.74049089
  WF centre and spread   10  ( -0.104998,  2.733614,  4.777422 )     4.64680858
  WF centre and spread   11  (  0.983732,  1.430394,  1.626396 )     7.73876980
  WF centre and spread   12  ( -1.355087,  2.884977,  0.053035 )     1.78894466
  WF centre and spread   13  ( -0.095983,  1.451351,  3.905132 )     3.75853222
  WF centre and spread   14  (  2.718442,  0.368080,  4.721063 )     1.35874472
  WF centre and spread   15  (  0.246087,  0.154038,  4.416164 )     4.23309986
  WF centre and spread   16  (  1.370825,  0.860928,  5.538711 )     3.49728834
  WF centre and spread   17  (  2.556264,  0.486418,  0.778011 )     3.40038204
  WF centre and spread   18  (  3.587343,  0.246718,  1.049819 )     1.52974597
  WF centre and spread   19  ( -0.330280,  1.321910,  2.270439 )     9.11409334
  WF centre and spread   20  (  0.766083,  0.307344,  3.453248 )     9.08831955
  WF centre and spread   21  (  1.584574,  2.851318,  0.154425 )     0.89701623
  WF centre and spread   22  (  2.214808,  1.573748,  4.261002 )     0.73985707
  WF centre and spread   23  ( -1.624026,  2.646412,  4.438618 )     2.94453700
  WF centre and spread   24  (  0.219961,  1.872074,  1.255603 )     4.56923085
  WF centre and spread   25  ( -0.567545,  2.741167,  5.768356 )     3.11021540
  WF centre and spread   26  (  2.429545,  0.791234,  4.300458 )     2.84793062
  WF centre and spread   27  (  0.150861,  1.784289,  5.295671 )     3.90710510
  WF centre and spread   28  (  0.506625, -0.030437,  5.135096 )     1.90450225
  WF centre and spread   29  (  2.496745,  1.098763,  2.027776 )     8.55651899
  WF centre and spread   30  ( -1.090127,  2.383985,  0.622117 )     3.47804896
  WF centre and spread   31  (  3.069981,  1.737601,  1.249626 )     5.34349577
  WF centre and spread   32  (  2.254698,  0.500190,  3.996306 )     7.56014057
  WF centre and spread   33  (  3.231954,  0.472855,  2.165783 )     8.41172838
  WF centre and spread   34  (  0.372517,  0.762631,  5.578627 )     1.82042886
  WF centre and spread   35  (  0.069995,  2.624346,  1.838273 )     3.81499638
  WF centre and spread   36  (  1.654357,  2.839954,  1.252349 )     4.23236052
  WF centre and spread   37  (  0.912272,  2.387919,  5.559307 )     1.96740589
  WF centre and spread   38  (  0.693852,  2.239381,  4.366545 )     4.07725873
  WF centre and spread   39  (  1.238053,  1.217578,  1.148359 )     3.96025496
  WF centre and spread   40  ( -0.716747,  1.483584,  5.633885 )     3.31725973
  WF centre and spread   41  (  1.544885,  1.356634,  3.855790 )     8.51603583
  WF centre and spread   42  (  1.153692,  1.153645,  4.753287 )     1.03156851
  WF centre and spread   43  ( -1.510253,  2.319881,  3.132107 )     7.87621971
  WF centre and spread   44  ( -0.241075,  1.628254,  1.693752 )     2.03269008
  WF centre and spread   45  ( -0.639579,  2.449090,  2.094025 )    15.69020987
  WF centre and spread   46  ( -0.582054,  2.648650,  1.322902 )     3.44677616
  WF centre and spread   47  (  0.392554,  2.721358,  2.880105 )    10.67054624
  WF centre and spread   48  (  2.162364,  0.713126, -0.320253 )     4.62642097
  WF centre and spread   49  (  1.440026,  0.417790,  4.597690 )     2.02394230
  WF centre and spread   50  (  0.349392,  0.782275,  0.453784 )     1.12298386
  WF centre and spread   51  (  0.463949,  1.939692,  1.635656 )     8.66721230
  WF centre and spread   52  (  0.334657,  1.971479,  0.876937 )     2.26465969
  WF centre and spread   53  (  1.974339,  1.473005,  5.197904 )     1.49975448
  WF centre and spread   54  ( -0.289511,  2.648545,  0.790031 )     2.35922523
  WF centre and spread   55  (  3.048882,  1.604764,  0.814700 )     3.24262390
  WF centre and spread   56  ( -1.153701,  1.970954,  1.389976 )    10.52198366
  WF centre and spread   57  (  2.001693,  2.381964,  0.822610 )     7.08611963
  WF centre and spread   58  (  0.715733,  1.864260,  3.274476 )     5.39772147
  WF centre and spread   59  ( -0.762105,  2.003560,  4.118454 )    10.82609574
  WF centre and spread   60  (  0.946341,  2.584714,  0.600027 )     1.75875891
  WF centre and spread   61  (  2.915834,  0.500968,  3.622228 )     8.55603448
  WF centre and spread   62  (  1.875071,  1.094796, -0.167643 )     4.86281846
  WF centre and spread   63  (  1.277643,  0.169296,  0.071579 )     3.99447920
  WF centre and spread   64  (  1.647201,  0.881548,  3.242347 )     8.67159811
  Sum of centres and spreads ( 56.399612,101.788024,167.854689 )   306.18952524
 
      8    -0.662E+01     2.5168774569      306.1895212173     143.66  <-- CONV
        O_D=      3.0680841 O_OD=    193.0888089 O_TOT=    306.1895212 <-- SPRD
 Delta: O_D=  0.1500536E+00 O_OD= -0.6768820E+01 O_TOT= -0.6618766E+01 <-- DLTA
 ------------------------------------------------------------------------------
 Cycle:      9
  WF centre and spread    1  ( -0.569949,  3.232565,  4.351066 )     9.87374443
  WF centre and spread    2  (  1.804478,  0.929558,  4.045027 )     2.58729812
  WF centre and spread    3  (  1.114220,  0.725216,  4.264607 )     5.27143448
  WF centre and spread    4  (  2.195271,  0.508755,  1.429168 )     5.73895391
  WF centre and spread    5  (  0.411410,  2.029770,  1.947258 )     3.02146587
  WF centre and spread    6  ( -1.514090,  3.154020,  0.119144 )     0.83237638
  WF centre and spread    7  (  2.919930,  0.535114, -0.040678 )     2.06921416
  WF centre and spread    8  ( -0.655801,  3.225094,  1.744299 )     5.48637373
  WF centre and spread    9  (  2.122683,  1.961694,  0.617228 )     5.50710457
  WF centre and spread   10  ( -0.106854,  2.728618,  4.787835 )     4.60173276
  WF centre and spread   11  (  0.980250,  1.412744,  1.636594 )     7.57796832
  WF centre and spread   12  ( -1.383640,  2.897270,  0.050104 )     1.72213790
  WF centre and spread   13  ( -0.096538,  1.452240,  3.922179 )     3.75663812
  WF centre and spread   14  (  2.714715,  0.378318,  4.738430 )     1.40718693
  WF centre and spread   15  (  0.230678,  0.150145,  4.462512 )     4.17846166
  WF centre and spread   16  (  1.348586,  0.843901,  5.536226 )     3.57848747
  WF centre and spread   17  (  2.575942,  0.489853,  0.762231 )     3.35559438
  WF centre and spread   18  (  3.593741,  0.240444,  1.029122 )     1.51847586
  WF centre and spread   19  ( -0.311823,  1.316655,  2.243282 )     8.88595609
  WF centre and spread   20  (  0.774254,  0.335638,  3.504106 )     8.97645599
  WF centre and spread   21  (  1.599829,  2.872273,  0.142271 )     0.89391513
  WF centre and spread   22  (  2.209922,  1.572737,  4.272051 )     0.75465337
  WF centre and spread   23  ( -1.631318,  2.666564,  4.462187 )     3.03308211
  WF centre and spread   24  (  0.224345,  1.878792,  1.273298 )     4.29915497
  WF centre and spread   25  ( -0.576179,  2.746115,  5.777076 )     3.19108407
  WF centre and spread   26  (  2.430829,  0.782903,  4.309451 )     2.72415136
  WF centre and spread   27  (  0.147934,  1.791370,  5.305815 )     4.02357987
  WF centre and spread   28  (  0.492416, -0.029178,  5.154231 )     1.92141038
  WF centre and spread   29  (  2.502000,  1.113067,  2.014858 )     8.25813442
  WF centre and spread   30  ( -1.116635,  2.421365,  0.596488 )     3.37345074
  WF centre and spread   31  (  3.085543,  1.718082,  1.245913 )     5.09838195
  WF centre and spread   32  (  2.252088,  0.509668,  4.011017 )     7.14041155
  WF centre and spread   33  (  3.234237,  0.462062,  2.118538 )     7.63594437
  WF centre and spread   34  (  0.358372,  0.755464,  5.583490 )     1.81259483
  WF centre and spread   35  (  0.084397,  2.623451,  1.818926 )     3.36771312
  WF centre and spread   36  (  1.674029,  2.863208,  1.180821 )     3.99053058
  WF centre and spread   37  (  0.934947,  2.405519,  5.559593 )     2.00253223
  WF centre and spread   38  (  0.703693,  2.248210,  4.366465 )     4.08728492
  WF centre and spread   39  (  1.229209,  1.217626,  1.139607 )     3.94752742
  WF centre and spread   40  ( -0.716055,  1.465474,  5.633714 )     3.45925787
  WF centre and spread   41  (  1.523875,  1.361263,  3.923953 )     8.44873797
  WF centre and spread   42  (  1.167179,  1.159253,  4.758451 )     1.05769829
  WF centre and spread   43  ( -1.511134,  2.311064,  3.149685 )     7.55975581
  WF centre and spread   44  ( -0.235530,  1.623790,  1.696856 )     1.93856025
  WF centre and spread   45  ( -0.627218,  2.432727,  2.019373 )    15.75807136
  WF centre and spread   46  ( -0.590821,  2.643671,  1.317170 )     3.26187499
  WF centre and spread   47  (  0.422801,  2.736640,  2.875654 )    10.08320307
  WF centre and spread   48  (  2.156159,  0.698750, -0.323073 )     4.64554851
  WF centre and spread   49  (  1.445762,  0.427842,  4.602738 )     2.03615010
  WF centre and spread   50  (  0.339065,  0.761582,  0.440465 )     1.13177479
  WF centre and spread   51  (  0.463449,  1.963423,  1.625047 )     8.21096937
  WF centre and spread   52  (  0.343309,  1.974028,  0.885487 )     2.11831112
  WF centre and spread   53  (  1.974855,  1.469094,  5.189707 )     1.53523954
  WF centre and spread   54  ( -0.292181,  2.650019,  0.801564 )     2.30932679
  WF centre and spread   55  (  3.056687,  1.614326,  0.822066 )     3.20539798
  WF centre and spread   56  ( -1.145001,  1.945124,  1.332869 )    10.65618891
  WF centre and spread   57  (  2.010085,  2.444186,  0.740234 )     6.22998892
  WF centre and spread   58  (  0.711873,  1.862428,  3.275565 )     5.28258307
  WF centre and spread   59  ( -0.764653,  1.980705,  4.149754 )    10.72919910
  WF centre and spread   60  (  0.979597,  2.603859,  0.572766 )     1.79877326
  WF centre and spread   61  (  2.924230,  0.496748,  3.640934 )     8.10689016
  WF centre and spread   62  (  1.879241,  1.113583, -0.183989 )     4.86893716
  WF centre and spread   63  (  1.228152,  0.153909,  0.066738 )     3.91602208
  WF centre and spread   64  (  1.657676,  0.914601,  3.285269 )     8.05780409
  Sum of centres and spreads ( 56.388528,101.974999,167.780833 )   297.90886307
 
      9    -0.828E+01     2.5847702315      297.9088590185     158.85  <-- CONV
        O_D=      3.6761881 O_OD=    184.2000426 O_TOT=    297.9088590 <-- SPRD
 Delta: O_D=  0.6081040E+00 O_OD= -0.8888766E+01 O_TOT= -0.8280662E+01 <-- DLTA
 ------------------------------------------------------------------------------
 Cycle:     10
  WF centre and spread    1  ( -0.630260,  3.247671,  4.375719 )     9.75463516
  WF centre and spread    2  (  1.808476,  0.936335,  4.036665 )     2.50249332
  WF centre and spread    3  (  1.128065,  0.744888,  4.299991 )     5.02866660
  WF centre and spread    4  (  2.204033,  0.482187,  1.423661 )     5.68208701
  WF centre and spread    5  (  0.407622,  2.022239,  1.934504 )     2.84945224
  WF centre and spread    6  ( -1.529954,  3.151652,  0.113252 )     0.84408174
  WF centre and spread    7  (  2.927802,  0.514051, -0.039731 )     2.11490275
  WF centre and spread    8  ( -0.673311,  3.216871,  1.728894 )     5.15491930
  WF centre and spread    9  (  2.112377,  2.001235,  0.601439 )     5.28399249
  WF centre and spread   10  ( -0.109939,  2.721341,  4.795668 )     4.57862441
  WF centre and spread   11  (  0.975005,  1.394594,  1.651713 )     7.47802229
  WF centre and spread   12  ( -1.417866,  2.911808,  0.047374 )     1.65463095
  WF centre and spread   13  ( -0.097888,  1.452093,  3.940765 )     3.78340228
  WF centre and spread   14  (  2.711297,  0.388023,  4.758931 )     1.49682788
  WF centre and spread   15  (  0.214841,  0.141472,  4.516195 )     4.16129483
  WF centre and spread   16  (  1.325744,  0.822153,  5.532583 )     3.71482501
  WF centre and spread   17  (  2.598703,  0.491342,  0.743918 )     3.33172472
  WF centre and spread   18  (  3.602906,  0.230736,  1.003781 )     1.55193671
  WF centre and spread   19  ( -0.293980,  1.309605,  2.233848 )     8.61709349
  WF centre and spread   20  (  0.784654,  0.362221,  3.553306 )     8.86164704
  WF centre and spread   21  (  1.618879,  2.897794,  0.128380 )     0.90310185
  WF centre and spread   22  (  2.203491,  1.572343,  4.285483 )     0.78875406
  WF centre and spread   23  ( -1.640722,  2.691438,  4.490554 )     3.19072411
  WF centre and spread   24  (  0.236462,  1.885749,  1.301578 )     3.99900283
  WF centre and spread   25  ( -0.585597,  2.752148,  5.787092 )     3.33073947
  WF centre and spread   26  (  2.432768,  0.771640,  4.316328 )     2.63014939
  WF centre and spread   27  (  0.143659,  1.798465,  5.315878 )     4.19239162
  WF centre and spread   28  (  0.474250, -0.028334,  5.179411 )     1.98687749
  WF centre and spread   29  (  2.509093,  1.129066,  2.010014 )     7.83464792
  WF centre and spread   30  ( -1.150258,  2.464538,  0.565104 )     3.29126710
  WF centre and spread   31  (  3.094890,  1.697524,  1.250219 )     4.92745827
  WF centre and spread   32  (  2.246501,  0.515943,  4.025402 )     6.68193851
  WF centre and spread   33  (  3.236930,  0.449114,  2.086075 )     6.91071404
  WF centre and spread   34  (  0.340214,  0.747027,  5.590001 )     1.82041754
  WF centre and spread   35  (  0.102636,  2.622379,  1.808430 )     2.92689599
  WF centre and spread   36  (  1.700694,  2.890422,  1.100247 )     3.84511397
  WF centre and spread   37  (  0.963417,  2.425077,  5.561388 )     2.07516925
  WF centre and spread   38  (  0.713735,  2.259258,  4.365560 )     4.13954743
  WF centre and spread   39  (  1.220971,  1.218993,  1.128642 )     3.96189110
  WF centre and spread   40  ( -0.715646,  1.444320,  5.635644 )     3.66202146
  WF centre and spread   41  (  1.496491,  1.367629,  3.972754 )     8.50737630
  WF centre and spread   42  (  1.184048,  1.166000,  4.763883 )     1.10466926
  WF centre and spread   43  ( -1.518098,  2.297604,  3.172510 )     7.24647348
  WF centre and spread   44  ( -0.229122,  1.619100,  1.702275 )     1.84275968
  WF centre and spread   45  ( -0.621186,  2.419616,  1.965780 )    15.06040533
  WF centre and spread   46  ( -0.593085,  2.634168,  1.321424 )     3.09355342
  WF centre and spread   47  (  0.438473,  2.749448,  2.889837 )     9.28774196
  WF centre and spread   48  (  2.148842,  0.677133, -0.324879 )     4.68765017
  WF centre and spread   49  (  1.453133,  0.438188,  4.607488 )     2.07422973
  WF centre and spread   50  (  0.325714,  0.733597,  0.423609 )     1.15973861
  WF centre and spread   51  (  0.458764,  1.984311,  1.634934 )     7.76856905
  WF centre and spread   52  (  0.354678,  1.974329,  0.898446 )     1.94486411
  WF centre and spread   53  (  1.975985,  1.464421,  5.180683 )     1.59677614
  WF centre and spread   54  ( -0.290768,  2.650342,  0.818857 )     2.30045298
  WF centre and spread   55  (  3.066744,  1.621108,  0.833648 )     3.17685129
  WF centre and spread   56  ( -1.141914,  1.914390,  1.284380 )    10.58301750
  WF centre and spread   57  (  2.017482,  2.522127,  0.655022 )     5.56181838
  WF centre and spread   58  (  0.705143,  1.862252,  3.269278 )     5.19542038
  WF centre and spread   59  ( -0.770671,  1.949624,  4.178777 )    10.60330206
  WF centre and spread   60  (  1.018211,  2.625795,  0.541743 )     1.86628452
  WF centre and spread   61  (  2.924745,  0.492185,  3.658534 )     7.70581410
  WF centre and spread   62  (  1.888258,  1.134500, -0.202917 )     4.93299993
  WF centre and spread   63  (  1.167093,  0.135461,  0.060207 )     3.82846923
  WF centre and spread   64  (  1.659322,  0.947490,  3.314647 )     7.46049616
  Sum of centres and spreads ( 56.312975,102.128240,167.804824 )   290.13381742
 
     10    -0.778E+01     3.3794484728      290.1338133424     174.06  <-- CONV
        O_D=      2.6488150 O_OD=    177.4523700 O_TOT=    290.1338133 <-- SPRD
 Delta: O_D= -0.1027373E+01 O_OD= -0.6747673E+01 O_TOT= -0.7775046E+01 <-- DLTA
 ------------------------------------------------------------------------------
 Cycle:     11
  WF centre and spread    1  ( -0.678758,  3.257532,  4.387837 )     9.68997929
  WF centre and spread    2  (  1.811594,  0.942732,  4.028606 )     2.41832594
  WF centre and spread    3  (  1.141987,  0.760257,  4.320785 )     4.78937270
  WF centre and spread    4  (  2.207211,  0.463755,  1.423207 )     5.61695961
  WF centre and spread    5  (  0.404092,  2.016525,  1.925566 )     2.71635188
  WF centre and spread    6  ( -1.543384,  3.149995,  0.108274 )     0.85893998
  WF centre and spread    7  (  2.936268,  0.495290, -0.037571 )     2.15540155
  WF centre and spread    8  ( -0.686695,  3.206987,  1.719935 )     4.92108478
  WF centre and spread    9  (  2.105404,  2.030260,  0.593902 )     5.09348791
  WF centre and spread   10  ( -0.112864,  2.715931,  4.799912 )     4.54389261
  WF centre and spread   11  (  0.971970,  1.384247,  1.664405 )     7.43199580
  WF centre and spread   12  ( -1.446941,  2.924236,  0.045590 )     1.59613870
  WF centre and spread   13  ( -0.099157,  1.451321,  3.957264 )     3.79047218
  WF centre and spread   14  (  2.709750,  0.393991,  4.776200 )     1.58193839
  WF centre and spread   15  (  0.202426,  0.127168,  4.562744 )     4.13823680
  WF centre and spread   16  (  1.309159,  0.803018,  5.529576 )     3.79999210
  WF centre and spread   17  (  2.617380,  0.491176,  0.727162 )     3.29040171
  WF centre and spread   18  (  3.611420,  0.221621,  0.981882 )     1.59564010
  WF centre and spread   19  ( -0.281464,  1.305270,  2.241525 )     8.36965668
  WF centre and spread   20  (  0.792432,  0.378744,  3.579945 )     8.70407590
  WF centre and spread   21  (  1.634854,  2.919006,  0.117710 )     0.91274966
  WF centre and spread   22  (  2.197360,  1.572762,  4.297064 )     0.82173278
  WF centre and spread   23  ( -1.648432,  2.711608,  4.513924 )     3.33092255
  WF centre and spread   24  (  0.250213,  1.892253,  1.327705 )     3.74498076
  WF centre and spread   25  ( -0.593272,  2.757772,  5.795134 )     3.43548484
  WF centre and spread   26  (  2.435155,  0.762946,  4.322109 )     2.56756743
  WF centre and spread   27  (  0.139474,  1.802350,  5.322137 )     4.31838391
  WF centre and spread   28  (  0.458555, -0.028644,  5.202260 )     2.03861775
  WF centre and spread   29  (  2.514510,  1.144130,  2.013868 )     7.40419388
  WF centre and spread   30  ( -1.178458,  2.498787,  0.539107 )     3.20951693
  WF centre and spread   31  (  3.096106,  1.683051,  1.257838 )     4.83136491
  WF centre and spread   32  (  2.240500,  0.518505,  4.036325 )     6.35582189
  WF centre and spread   33  (  3.238250,  0.441666,  2.073679 )     6.41602304
  WF centre and spread   34  (  0.324394,  0.739626,  5.596435 )     1.82583795
  WF centre and spread   35  (  0.117135,  2.621783,  1.805913 )     2.61035467
  WF centre and spread   36  (  1.725616,  2.913131,  1.035250 )     3.75373327
  WF centre and spread   37  (  0.988466,  2.440015,  5.564115 )     2.14064943
  WF centre and spread   38  (  0.721491,  2.267874,  4.365055 )     4.17394102
  WF centre and spread   39  (  1.217356,  1.220464,  1.118292 )     3.96108557
  WF centre and spread   40  ( -0.715697,  1.427233,  5.639388 )     3.81855103
  WF centre and spread   41  (  1.472719,  1.372903,  3.995870 )     8.56380388
  WF centre and spread   42  (  1.198904,  1.171817,  4.767639 )     1.14168013
  WF centre and spread   43  ( -1.528309,  2.286559,  3.186072 )     6.97678702
  WF centre and spread   44  ( -0.224482,  1.615821,  1.706754 )     1.76127555
  WF centre and spread   45  ( -0.615257,  2.404380,  1.953101 )    15.12659554
  WF centre and spread   46  ( -0.588177,  2.623661,  1.331762 )     2.96467863
  WF centre and spread   47  (  0.444135,  2.757485,  2.892205 )     8.68945328
  WF centre and spread   48  (  2.142609,  0.656067, -0.325607 )     4.71488726
  WF centre and spread   49  (  1.459225,  0.446231,  4.611116 )     2.09916291
  WF centre and spread   50  (  0.313835,  0.707670,  0.408582 )     1.18991695
  WF centre and spread   51  (  0.452553,  1.995752,  1.654014 )     7.38531737
  WF centre and spread   52  (  0.364245,  1.972760,  0.910208 )     1.79642955
  WF centre and spread   53  (  1.977223,  1.460828,  5.173866 )     1.64427992
  WF centre and spread   54  ( -0.284002,  2.649418,  0.836907 )     2.30867436
  WF centre and spread   55  (  3.077210,  1.623093,  0.844350 )     3.13275587
  WF centre and spread   56  ( -1.134887,  1.888415,  1.254246 )    10.57219021
[...]
  WF centre and spread   46  ( -0.481712,  2.501020,  1.514021 )     1.85555800
  WF centre and spread   47  (  0.457568,  2.882470,  2.841219 )     4.90794467
  WF centre and spread   48  (  2.044884,  0.439045, -0.208082 )     4.96117601
  WF centre and spread   49  (  1.545708,  0.458599,  4.621131 )     1.84810191
  WF centre and spread   50  (  0.270271,  0.468637,  0.291676 )     1.46809737
  WF centre and spread   51  (  0.532543,  2.052113,  1.784361 )     4.37146512
  WF centre and spread   52  (  0.359929,  1.931478,  0.991796 )     1.15836449
  WF centre and spread   53  (  2.000566,  1.376891,  5.113515 )     1.44678997
  WF centre and spread   54  ( -0.044175,  2.558872,  1.047100 )     1.56695027
  WF centre and spread   55  (  3.234072,  1.735045,  1.015333 )     1.45750780
  WF centre and spread   56  ( -0.010673,  0.784653,  0.703443 )     9.29604305
  WF centre and spread   57  (  1.881705,  2.906793,  0.114329 )     2.40850540
  WF centre and spread   58  (  0.579228,  1.886753,  3.164060 )     4.35493164
  WF centre and spread   59  ( -0.864601,  1.986030,  3.851281 )    10.71827319
  WF centre and spread   60  (  1.169779,  2.661403,  0.454640 )     2.02307621
  WF centre and spread   61  (  3.027960,  0.501040,  3.600669 )     4.12397705
  WF centre and spread   62  (  1.820149,  1.394261, -0.261203 )     5.23894674
  WF centre and spread   63  (  0.727738, -0.039274,  0.045151 )     2.59422262
  WF centre and spread   64  (  1.570409,  1.004281,  3.107214 )     5.98224840
  Sum of centres and spreads ( 56.841320,101.740220,169.721081 )   232.78985540
 
     98    -0.167E+00     0.7152759865      232.7898510699    1497.89  <-- CONV
        O_D=      2.0595958 O_OD=    120.6976270 O_TOT=    232.7898511 <-- SPRD
 Delta: O_D=  0.2527222E-01 O_OD= -0.1927712E+00 O_TOT= -0.1674990E+00 <-- DLTA
 ------------------------------------------------------------------------------
 Cycle:     99
  WF centre and spread    1  ( -0.687489,  3.611404,  4.357465 )    10.75031052
  WF centre and spread    2  (  1.856750,  0.995711,  3.971764 )     1.46985295
  WF centre and spread    3  (  1.417254,  0.920604,  4.455462 )     3.05841109
  WF centre and spread    4  (  1.927783,  0.485195,  1.452411 )     4.27270043
  WF centre and spread    5  (  0.380145,  1.993332,  1.897280 )     1.99794492
  WF centre and spread    6  ( -1.687725,  3.161898,  0.050864 )     0.69628407
  WF centre and spread    7  (  2.865404,  0.409915, -0.026585 )     3.01421398
  WF centre and spread    8  ( -0.964963,  3.242128,  1.826727 )     4.07764420
  WF centre and spread    9  (  2.149121,  2.170538,  0.579757 )     5.48386271
  WF centre and spread   10  ( -0.178622,  2.583216,  4.774199 )     4.22901483
  WF centre and spread   11  (  1.008493,  1.329575,  2.084691 )     6.64061041
  WF centre and spread   12  ( -1.688453,  3.065313,  0.009977 )     0.97250509
  WF centre and spread   13  ( -0.228082,  1.469434,  4.191486 )     3.89896223
  WF centre and spread   14  (  2.975362,  0.289630,  5.017157 )     1.72868220
  WF centre and spread   15  (  0.115576, -0.258198,  5.175758 )     3.00161396
  WF centre and spread   16  (  1.200095,  0.691962,  5.505682 )     4.42761779
  WF centre and spread   17  (  2.831373,  0.393134,  0.689648 )     2.52809031
  WF centre and spread   18  (  3.709751,  0.170032,  0.907343 )     1.90447772
  WF centre and spread   19  ( -0.209286,  1.230126,  2.643102 )     4.56703192
  WF centre and spread   20  (  0.710198,  0.371167,  3.417504 )     3.76576420
  WF centre and spread   21  (  1.794979,  3.105341,  0.026867 )     0.65308383
  WF centre and spread   22  (  2.115402,  1.615228,  4.381894 )     1.16699322
  WF centre and spread   23  ( -1.647767,  2.800065,  4.417074 )     3.67843219
  WF centre and spread   24  (  0.272197,  1.936710,  1.536086 )     2.18668753
  WF centre and spread   25  ( -0.680032,  2.799743,  5.799537 )     3.18608902
  WF centre and spread   26  (  2.504634,  0.737210,  4.449591 )     1.54166706
  WF centre and spread   27  (  0.039804,  1.799360,  5.363739 )     4.02023761
  WF centre and spread   28  (  0.443793, -0.004588,  5.348532 )     2.06389441
  WF centre and spread   29  (  2.462034,  1.388832,  2.175833 )     4.48584107
  WF centre and spread   30  ( -1.277893,  2.586811,  0.469807 )     2.10087983
  WF centre and spread   31  (  2.969812,  1.837775,  1.537291 )     3.47056538
  WF centre and spread   32  (  2.140287,  0.571143,  4.180305 )     5.11264602
  WF centre and spread   33  (  3.088721,  0.398838,  1.978908 )     4.27847573
  WF centre and spread   34  (  0.230029,  0.716106,  5.682264 )     2.01995016
  WF centre and spread   35  (  0.164632,  2.614600,  1.812289 )     1.63272308
  WF centre and spread   36  (  1.862411,  2.995401,  0.539652 )     2.31964179
  WF centre and spread   37  (  1.127121,  2.516976,  5.610627 )     2.24499573
  WF centre and spread   38  (  0.719470,  2.250876,  4.336950 )     3.51669771
  WF centre and spread   39  (  1.275349,  1.332957,  1.025893 )     4.28231321
  WF centre and spread   40  ( -0.773040,  1.155440,  5.872453 )     3.54023898
  WF centre and spread   41  (  1.584595,  1.338057,  4.331737 )     4.02104517
  WF centre and spread   42  (  1.323370,  1.229601,  4.818310 )     1.37397021
  WF centre and spread   43  ( -1.587986,  2.312343,  3.225485 )     3.51961153
  WF centre and spread   44  ( -0.216937,  1.594143,  1.750200 )     1.39449777
  WF centre and spread   45  ( -0.408658,  2.295508,  2.285230 )    20.68057767
  WF centre and spread   46  ( -0.481542,  2.500927,  1.514333 )     1.85453493
  WF centre and spread   47  (  0.457686,  2.882552,  2.841003 )     4.90296528
  WF centre and spread   48  (  2.045360,  0.438649, -0.207201 )     4.96882612
  WF centre and spread   49  (  1.546143,  0.458464,  4.621210 )     1.84661247
  WF centre and spread   50  (  0.270144,  0.467725,  0.291204 )     1.46601684
  WF centre and spread   51  (  0.533571,  2.052512,  1.784509 )     4.36966141
  WF centre and spread   52  (  0.359994,  1.931466,  0.991877 )     1.15868754
  WF centre and spread   53  (  2.001026,  1.376135,  5.113148 )     1.44472865
  WF centre and spread   54  ( -0.043606,  2.558553,  1.047111 )     1.56440885
  WF centre and spread   55  (  3.234344,  1.736734,  1.016475 )     1.45165958
  WF centre and spread   56  ( -0.005736,  0.774693,  0.696954 )     9.24883194
  WF centre and spread   57  (  1.881592,  2.907840,  0.113552 )     2.40515790
  WF centre and spread   58  (  0.579365,  1.886973,  3.163770 )     4.35760296
  WF centre and spread   59  ( -0.863831,  1.988891,  3.845392 )    10.70771580
  WF centre and spread   60  (  1.169705,  2.660708,  0.454809 )     2.02366510
  WF centre and spread   61  (  3.028671,  0.500529,  3.599627 )     4.11251079
  WF centre and spread   62  (  1.818825,  1.396169, -0.260140 )     5.24056509
  WF centre and spread   63  (  0.727600, -0.040394,  0.044908 )     2.59436949
  WF centre and spread   64  (  1.570996,  1.003776,  3.107225 )     5.98624502
  Sum of centres and spreads ( 56.859320,101.733497,169.718013 )   232.68211718
 
     99    -0.108E+00     0.7428102252      232.6821128481    1512.92  <-- CONV
        O_D=      2.0565210 O_OD=    120.5929636 O_TOT=    232.6821128 <-- SPRD
 Delta: O_D= -0.3074794E-02 O_OD= -0.1046634E+00 O_TOT= -0.1077382E+00 <-- DLTA
 ------------------------------------------------------------------------------
 Cycle:    100
  WF centre and spread    1  ( -0.685943,  3.618505,  4.360603 )    10.73413664
  WF centre and spread    2  (  1.857056,  0.995747,  3.971320 )     1.46595466
  WF centre and spread    3  (  1.418168,  0.921768,  4.456080 )     3.05181999
  WF centre and spread    4  (  1.925972,  0.485481,  1.452125 )     4.26466099
  WF centre and spread    5  (  0.380096,  1.993267,  1.897472 )     1.99623859
  WF centre and spread    6  ( -1.688971,  3.162006,  0.050354 )     0.69429885
  WF centre and spread    7  (  2.864548,  0.410005, -0.027124 )     3.02242147
  WF centre and spread    8  ( -0.966894,  3.241397,  1.828137 )     4.07544468
  WF centre and spread    9  (  2.149950,  2.170833,  0.582821 )     5.51007993
  WF centre and spread   10  ( -0.178829,  2.582787,  4.773895 )     4.23052169
  WF centre and spread   11  (  1.008881,  1.327670,  2.086106 )     6.63640827
  WF centre and spread   12  ( -1.689909,  3.066352,  0.009697 )     0.96904494
  WF centre and spread   13  ( -0.230455,  1.472014,  4.193269 )     3.90612799
  WF centre and spread   14  (  2.979319,  0.288110,  5.019626 )     1.72809655
  WF centre and spread   15  (  0.115393, -0.261367,  5.179306 )     2.99184122
  WF centre and spread   16  (  1.199635,  0.691685,  5.504730 )     4.43308188
  WF centre and spread   17  (  2.832779,  0.392205,  0.690129 )     2.52699114
  WF centre and spread   18  (  3.710052,  0.169750,  0.907477 )     1.90937093
  WF centre and spread   19  ( -0.208251,  1.230355,  2.645322 )     4.55409746
  WF centre and spread   20  (  0.710006,  0.372098,  3.417661 )     3.74617334
  WF centre and spread   21  (  1.795697,  3.106298,  0.026474 )     0.65114353
  WF centre and spread   22  (  2.114993,  1.615560,  4.382315 )     1.17019892
  WF centre and spread   23  ( -1.647643,  2.799725,  4.414030 )     3.68954645
  WF centre and spread   24  (  0.271698,  1.936535,  1.536759 )     2.18500653
  WF centre and spread   25  ( -0.680882,  2.799812,  5.799780 )     3.18477769
  WF centre and spread   26  (  2.503696,  0.738100,  4.450177 )     1.53264028
  WF centre and spread   27  (  0.039484,  1.800362,  5.364574 )     4.02309969
  WF centre and spread   28  (  0.444692, -0.003669,  5.348459 )     2.06606145
  WF centre and spread   29  (  2.461554,  1.389528,  2.175428 )     4.47656250
  WF centre and spread   30  ( -1.276580,  2.585678,  0.471114 )     2.09915906
  WF centre and spread   31  (  2.969171,  1.840374,  1.540777 )     3.46844692
  WF centre and spread   32  (  2.138918,  0.572374,  4.182000 )     5.10368613
  WF centre and spread   33  (  3.088168,  0.398052,  1.978794 )     4.27539464
  WF centre and spread   34  (  0.229882,  0.716453,  5.682595 )     2.02640341
  WF centre and spread   35  (  0.164927,  2.614639,  1.812305 )     1.63279599
  WF centre and spread   36  (  1.863264,  2.995061,  0.538987 )     2.32435206
  WF centre and spread   37  (  1.127667,  2.517334,  5.611043 )     2.24657860
  WF centre and spread   38  (  0.718443,  2.250419,  4.336757 )     3.51338682
  WF centre and spread   39  (  1.275827,  1.334313,  1.026054 )     4.28659815
  WF centre and spread   40  ( -0.773192,  1.153580,  5.873725 )     3.54102329
  WF centre and spread   41  (  1.586050,  1.336895,  4.331140 )     3.98370663
  WF centre and spread   42  (  1.324142,  1.230088,  4.818661 )     1.37491165
  WF centre and spread   43  ( -1.587883,  2.312362,  3.225305 )     3.51554212
  WF centre and spread   44  ( -0.216946,  1.594070,  1.750211 )     1.39509687
  WF centre and spread   45  ( -0.404439,  2.303377,  2.265104 )    20.75155621
  WF centre and spread   46  ( -0.481302,  2.500793,  1.514786 )     1.85314257
  WF centre and spread   47  (  0.457863,  2.882667,  2.840656 )     4.89543651
  WF centre and spread   48  (  2.046062,  0.438013, -0.205824 )     4.98065755
  WF centre and spread   49  (  1.546787,  0.458253,  4.621291 )     1.84436717
  WF centre and spread   50  (  0.269951,  0.466344,  0.290478 )     1.46275090
  WF centre and spread   51  (  0.535125,  2.053102,  1.784701 )     4.36700534
  WF centre and spread   52  (  0.360095,  1.931446,  0.991989 )     1.15919201
  WF centre and spread   53  (  2.001738,  1.374971,  5.112576 )     1.44166030
  WF centre and spread   54  ( -0.042744,  2.558073,  1.047123 )     1.56041663
  WF centre and spread   55  (  3.234753,  1.739318,  1.018186 )     1.44268064
  WF centre and spread   56  (  0.001365,  0.759748,  0.686983 )     9.17249827
  WF centre and spread   57  (  1.881386,  2.909431,  0.112359 )     2.40007437
  WF centre and spread   58  (  0.579547,  1.887343,  3.163305 )     4.36221662
  WF centre and spread   59  ( -0.862760,  1.993482,  3.836301 )    10.69162541
  WF centre and spread   60  (  1.169601,  2.659627,  0.455094 )     2.02474933
  WF centre and spread   61  (  3.029696,  0.499785,  3.598045 )     4.09531882
  WF centre and spread   62  (  1.816712,  1.399136, -0.258557 )     5.24286944
  WF centre and spread   63  (  0.727385, -0.042123,  0.044532 )     2.59491043
  WF centre and spread   64  (  1.571916,  1.003093,  3.107196 )     5.99207255
  Sum of centres and spreads ( 56.876490,101.740489,169.702792 )   232.54813168
 
    100    -0.134E+00     0.7162402200      232.5481273349    1527.96  <-- CONV
        O_D=      2.0810316 O_OD=    120.4344675 O_TOT=    232.5481273 <-- SPRD
 Delta: O_D=  0.2451060E-01 O_OD= -0.1584961E+00 O_TOT= -0.1339855E+00 <-- DLTA
 ------------------------------------------------------------------------------

 Writing checkpoint file wannier90.chk... done

 Final State
  WF centre and spread    1  ( -0.685943,  3.618505,  4.360603 )    10.73413664
  WF centre and spread    2  (  1.857056,  0.995747,  3.971320 )     1.46595466
  WF centre and spread    3  (  1.418168,  0.921768,  4.456080 )     3.05181999
  WF centre and spread    4  (  1.925972,  0.485481,  1.452125 )     4.26466099
  WF centre and spread    5  (  0.380096,  1.993267,  1.897472 )     1.99623859
  WF centre and spread    6  ( -1.688971,  3.162006,  0.050354 )     0.69429885
  WF centre and spread    7  (  2.864548,  0.410005, -0.027124 )     3.02242147
  WF centre and spread    8  ( -0.966894,  3.241397,  1.828137 )     4.07544468
  WF centre and spread    9  (  2.149950,  2.170833,  0.582821 )     5.51007993
  WF centre and spread   10  ( -0.178829,  2.582787,  4.773895 )     4.23052169
  WF centre and spread   11  (  1.008881,  1.327670,  2.086106 )     6.63640827
  WF centre and spread   12  ( -1.689909,  3.066352,  0.009697 )     0.96904494
  WF centre and spread   13  ( -0.230455,  1.472014,  4.193269 )     3.90612799
  WF centre and spread   14  (  2.979319,  0.288110,  5.019626 )     1.72809655
  WF centre and spread   15  (  0.115393, -0.261367,  5.179306 )     2.99184122
  WF centre and spread   16  (  1.199635,  0.691685,  5.504730 )     4.43308188
  WF centre and spread   17  (  2.832779,  0.392205,  0.690129 )     2.52699114
  WF centre and spread   18  (  3.710052,  0.169750,  0.907477 )     1.90937093
  WF centre and spread   19  ( -0.208251,  1.230355,  2.645322 )     4.55409746
  WF centre and spread   20  (  0.710006,  0.372098,  3.417661 )     3.74617334
  WF centre and spread   21  (  1.795697,  3.106298,  0.026474 )     0.65114353
  WF centre and spread   22  (  2.114993,  1.615560,  4.382315 )     1.17019892
  WF centre and spread   23  ( -1.647643,  2.799725,  4.414030 )     3.68954645
  WF centre and spread   24  (  0.271698,  1.936535,  1.536759 )     2.18500653
  WF centre and spread   25  ( -0.680882,  2.799812,  5.799780 )     3.18477769
  WF centre and spread   26  (  2.503696,  0.738100,  4.450177 )     1.53264028
  WF centre and spread   27  (  0.039484,  1.800362,  5.364574 )     4.02309969
  WF centre and spread   28  (  0.444692, -0.003669,  5.348459 )     2.06606145
  WF centre and spread   29  (  2.461554,  1.389528,  2.175428 )     4.47656250
  WF centre and spread   30  ( -1.276580,  2.585678,  0.471114 )     2.09915906
  WF centre and spread   31  (  2.969171,  1.840374,  1.540777 )     3.46844692
  WF centre and spread   32  (  2.138918,  0.572374,  4.182000 )     5.10368613
  WF centre and spread   33  (  3.088168,  0.398052,  1.978794 )     4.27539464
  WF centre and spread   34  (  0.229882,  0.716453,  5.682595 )     2.02640341
  WF centre and spread   35  (  0.164927,  2.614639,  1.812305 )     1.63279599
  WF centre and spread   36  (  1.863264,  2.995061,  0.538987 )     2.32435206
  WF centre and spread   37  (  1.127667,  2.517334,  5.611043 )     2.24657860
  WF centre and spread   38  (  0.718443,  2.250419,  4.336757 )     3.51338682
  WF centre and spread   39  (  1.275827,  1.334313,  1.026054 )     4.28659815
  WF centre and spread   40  ( -0.773192,  1.153580,  5.873725 )     3.54102329
  WF centre and spread   41  (  1.586050,  1.336895,  4.331140 )     3.98370663
  WF centre and spread   42  (  1.324142,  1.230088,  4.818661 )     1.37491165
  WF centre and spread   43  ( -1.587883,  2.312362,  3.225305 )     3.51554212
  WF centre and spread   44  ( -0.216946,  1.594070,  1.750211 )     1.39509687
  WF centre and spread   45  ( -0.404439,  2.303377,  2.265104 )    20.75155621
  WF centre and spread   46  ( -0.481302,  2.500793,  1.514786 )     1.85314257
  WF centre and spread   47  (  0.457863,  2.882667,  2.840656 )     4.89543651
  WF centre and spread   48  (  2.046062,  0.438013, -0.205824 )     4.98065755
  WF centre and spread   49  (  1.546787,  0.458253,  4.621291 )     1.84436717
  WF centre and spread   50  (  0.269951,  0.466344,  0.290478 )     1.46275090
  WF centre and spread   51  (  0.535125,  2.053102,  1.784701 )     4.36700534
  WF centre and spread   52  (  0.360095,  1.931446,  0.991989 )     1.15919201
  WF centre and spread   53  (  2.001738,  1.374971,  5.112576 )     1.44166030
  WF centre and spread   54  ( -0.042744,  2.558073,  1.047123 )     1.56041663
  WF centre and spread   55  (  3.234753,  1.739318,  1.018186 )     1.44268064
  WF centre and spread   56  (  0.001365,  0.759748,  0.686983 )     9.17249827
  WF centre and spread   57  (  1.881386,  2.909431,  0.112359 )     2.40007437
  WF centre and spread   58  (  0.579547,  1.887343,  3.163305 )     4.36221662
  WF centre and spread   59  ( -0.862760,  1.993482,  3.836301 )    10.69162541
  WF centre and spread   60  (  1.169601,  2.659627,  0.455094 )     2.02474933
  WF centre and spread   61  (  3.029696,  0.499785,  3.598045 )     4.09531882
  WF centre and spread   62  (  1.816712,  1.399136, -0.258557 )     5.24286944
  WF centre and spread   63  (  0.727385, -0.042123,  0.044532 )     2.59491043
  WF centre and spread   64  (  1.571916,  1.003093,  3.107196 )     5.99207255
  Sum of centres and spreads ( 56.876490,101.740489,169.702792 )   232.54813168
 
         Spreads (Ang^2)       Omega I      =   110.032628303
        ================       Omega D      =     2.081031561
                               Omega OD     =   120.434467470
    Final Spread (Ang^2)       Omega Total  =   232.548127335
 ------------------------------------------------------------------------------
 Time for wannierise         1509.072 (sec)

 Writing checkpoint file wannier90.chk... done

 *---------------------------------------------------------------------------*
 |                               PLOTTING                                    |
 *---------------------------------------------------------------------------*
 
 
 Calculating interpolated band-structure
 
 Time to calculate interpolated band structure      26.576 (sec)
 
 Time for plotting             27.056 (sec)
 Total Execution Time        1558.320 (sec)

 *===========================================================================*
 |                             TIMING INFORMATION                            |
 *===========================================================================*
 |    Tag                                                Ncalls      Time (s)|
 |---------------------------------------------------------------------------|
 |kmesh: get                                        :         1         0.052|
 |overlap: read                                     :         1        20.640|
 |wann: main                                        :         1      1509.072|
 |plot: main                                        :         1        27.056|
 *---------------------------------------------------------------------------*
 
 All done: wannier90 exiting
