       N       E                     dE             d eps       ncg     rms          ort
SDA:   1    -0.125840506819E+02   -0.12584E+02    0.00000E+00   464   0.115E-07 0.000E+00
CGA:   2    -0.125840506824E+02   -0.46612E-09   -0.13165E-08   464   0.885E-08 0.100E-07
   1 F= -.12584051E+02 E0= -.12584051E+02  d E =0.000000E+00
