 
             +---------------------------------------------------+
             |                                                   |
             |                   WANNIER90                       |
             |                                                   |
             +---------------------------------------------------+
             |                                                   |
             |        Welcome to the Maximally-Localized         |
             |        Generalized Wannier Functions code         |
             |            http://www.wannier.org                 |
             |                                                   |
             |  Wannier90 Authors:                               |
             |    Arash A. Mostofi   (Imperial College London)   |
             |    Jonathan R. Yates  (University of Oxford)      |
             |    Young-Su Lee       (KIST, S. Korea)            |
             |                                                   |
             |  Wannier90 Contributors:                          |
             |    Matthew Shelley    (Imperial College London)   |
             |    Nicolas Poilvert   (MIT)                       |
             |                                                   |
             |  Wannier77 Authors:                               |
             |    Nicola Marzari     (University of Oxford)      |
             |    Ivo Souza          (UC Berkeley)               |
             |    David Vanderbilt   (Rutgers University)        |
             |                                                   |
             |  Please cite                                      |
             |                                                   |
             |  [ref] "Wannier90: A Tool for Obtaining Maximally |
             |         Localised Wannier Functions"              |
             |        A. A. Mostofi, J. R. Yates, Y.-S. Lee,     |
             |        I. Souza, D. Vanderbilt and N. Marzari     |
             |        Comput. Phys. Commun. 178, 685 (2008)      |
             |                                                   |
             |  in any publications arising from the use of      |
             |  this code. For the method please cite            |
             |                                                   |
             |  [ref] "Maximally Localized Generalised Wannier   |
             |         Functions for Composite Energy Bands"     |
             |         N. Marzari and D. Vanderbilt              |
             |         Phys. Rev. B 56 12847 (1997)              |
             |                                                   |
             |  [ref] "Maximally Localized Wannier Functions     |
             |         for Entangled Energy Bands"               |
             |         I. Souza, N. Marzari and D. Vanderbilt    |
             |         Phys. Rev. B 65 035109 (2001)             |
             |                                                   |
             |                                                   |
             | Copyright (c) 1996-2010                           |
             |        A. A. Mostofi, J. R. Yates, Y.-S. Lee,     |
             |        I. Souza, D. Vanderbilt and N. Marzari     |
             |                                                   |
             |        Release: 1.2        24th Jan 2010          |
             |                                                   |
             | This program is free software; you can            |
             | redistribute it and/or modify it under the terms  |
             | of the GNU General Public License as published by |
             | the Free Software Foundation; either version 2 of |
             | the License, or (at your option) any later version|
             |                                                   |
             | This program is distributed in the hope that it   |
             | will be useful, but WITHOUT ANY WARRANTY; without |
             | even the implied warranty of MERCHANTABILITY or   |
             | FITNESS FOR A PARTICULAR PURPOSE. See the GNU     |
             | General Public License for more details.          |
             |                                                   |
             | You should have received a copy of the GNU General|
             | Public License along with this program; if not,   |
             | write to the Free Software Foundation, Inc.,      |
             | 675 Mass Ave, Cambridge, MA 02139, USA.           |
             |                                                   |
             +---------------------------------------------------+
             |    Execution started on  8Apr2016 at 06:36:12     |
             +---------------------------------------------------+
 
                                    ------
                                    SYSTEM
                                    ------
 
                              Lattice Vectors (Ang)
                    a_1     2.715500   2.715500   0.000000
                    a_2     0.000000   2.715500   2.715500
                    a_3     2.715500   0.000000   2.715500
 
                   Unit Cell Volume:      40.04787  (Ang^3)
 
                        Reciprocal-Space Vectors (Ang^-1)
                    b_1     1.156911   1.156911  -1.156911
                    b_2    -1.156911   1.156911   1.156911
                    b_3     1.156911  -1.156911   1.156911
  
 *----------------------------------------------------------------------------*
 |   Site       Fractional Coordinate          Cartesian Coordinate (Ang)     |
 +----------------------------------------------------------------------------+
 | Si   1   0.00000   0.00000   0.00000   |    0.00000   0.00000   0.00000    |
 | Si   2   0.25000   0.25000   0.25000   |    1.35775   1.35775   1.35775    |
 *----------------------------------------------------------------------------*
  
                                ------------
                                K-POINT GRID
                                ------------
  
             Grid size =  8 x  8 x  8      Total points =  512
  
  
 *---------------------------------- MAIN ------------------------------------*
 |  Number of Wannier Functions               :                16             |
 |  Number of input Bloch states              :                16             |
 |  Output verbosity (1=low, 5=high)          :                 1             |
 |  Timing Level (1=low, 5=high)              :                 1             |
 |  Optimisation (0=memory, 3=speed)          :                 3             |
 |  Length Unit                               :               Ang             |
 |  Post-processing setup (write *.nnkp)      :                 F             |
 |  Using Gamma-only branch of algorithms     :                 F             |
 *----------------------------------------------------------------------------*
 *------------------------------- WANNIERISE ---------------------------------*
 |  Total number of iterations                :               100             |
 |  Number of CG steps before reset           :                 5             |
 |  Trial step length for line search         :             2.000             |
 |  Convergence tolerence                     :         0.100E-09             |
 |  Convergence window                        :                -1             |
 |  Iterations between writing output         :                 1             |
 |  Iterations between backing up to disk     :               100             |
 |  Write r^2_nm to file                      :                 F             |
 |  Write xyz WF centres to file              :                 F             |
 |  Use guiding centre to control phases      :                 T             |
 |  Iterations before starting guiding centres:                 0             |
 |  Iterations between using guiding centres  :                 1             |
 *----------------------------------------------------------------------------*
 Time to read parameters        0.012 (sec)

 *---------------------------------- K-MESH ----------------------------------*
 +----------------------------------------------------------------------------+
 |                    Distance to Nearest-Neighbour Shells                    |
 |                    ------------------------------------                    |
 |          Shell             Distance (Ang^-1)          Multiplicity         |
 |          -----             -----------------          ------------         |
 |             1                   0.250479                      8            |
 |             2                   0.289228                      6            |
 |             3                   0.409030                     12            |
 |             4                   0.479630                     24            |
 |             5                   0.500957                      8            |
 |             6                   0.578456                      6            |
 |             7                   0.630357                     24            |
 |             8                   0.646733                     24            |
 |             9                   0.708461                     24            |
 |            10                   0.751436                     32            |
 |            11                   0.818060                     12            |
 |            12                   0.855547                     48            |
 +----------------------------------------------------------------------------+
 | The b-vectors are chosen automatically                                     |
 | The following shells are used:   1                                         |
 +----------------------------------------------------------------------------+
 |                        Shell   # Nearest-Neighbours                        |
 |                        -----   --------------------                        |
 |                          1               8                                 |
 +----------------------------------------------------------------------------+
 | Completeness relation is fully satisfied [Eq. (B1), PRB 56, 12847 (1997)]  |
 +----------------------------------------------------------------------------+
 |                  b_k Vectors (Ang^-1) and Weights (Ang^2)                  |
 |                  ----------------------------------------                  |
 |            No.         b_k(x)      b_k(y)      b_k(z)        w_b           |
 |            ---        --------------------------------     --------        |
 |             1         0.144614    0.144614   -0.144614     5.977091        |
 |             2        -0.144614    0.144614    0.144614     5.977091        |
 |             3         0.144614   -0.144614    0.144614     5.977091        |
 |             4        -0.144614   -0.144614   -0.144614     5.977091        |
 |             5        -0.144614   -0.144614    0.144614     5.977091        |
 |             6         0.144614   -0.144614   -0.144614     5.977091        |
 |             7        -0.144614    0.144614   -0.144614     5.977091        |
 |             8         0.144614    0.144614    0.144614     5.977091        |
 +----------------------------------------------------------------------------+
 |                           b_k Directions (Ang^-1)                          |
 |                           -----------------------                          |
 |            No.           x           y           z                         |
 |            ---        --------------------------------                     |
 |             1         0.144614    0.144614   -0.144614                     |
 |             2        -0.144614    0.144614    0.144614                     |
 |             3         0.144614   -0.144614    0.144614                     |
 |             4        -0.144614   -0.144614   -0.144614                     |
 +----------------------------------------------------------------------------+
  
 *============================================================================*
 |                              MEMORY ESTIMATE                               |
 |         Maximum RAM allocated during each phase of the calculation         |
 *============================================================================*
 |                            Wannierise:           42.78 Mb                  |
 *----------------------------------------------------------------------------*
  
 Starting a new Wannier90 calculation ...

 Time to get kmesh              0.172 (sec)

 Reading overlaps from wannier90.mmn    : File generated by VASP: Si

 Reading projections from wannier90.amn : File generated by VASP: Si

 Time to read overlaps          1.292 (sec)

 Writing checkpoint file wannier90.chk... done

 
 *------------------------------- WANNIERISE ---------------------------------*
 +--------------------------------------------------------------------+<-- CONV
 | Iter  Delta Spread     RMS Gradient      Spread (Ang^2)      Time  |<-- CONV
 +--------------------------------------------------------------------+<-- CONV
 
 ------------------------------------------------------------------------------
 Initial State
  WF centre and spread    1  (  3.477463,  2.272862,  3.475222 )     4.79539162
  WF centre and spread    2  (  2.715295,  2.277935,  1.885980 )     7.58293029
  WF centre and spread    3  (  2.223189,  1.045240,  2.476154 )    13.27668015
  WF centre and spread    4  (  3.393157,  4.133163,  2.066423 )     3.59739057
  WF centre and spread    5  (  2.951294,  2.584185,  4.710094 )     6.80544215
  WF centre and spread    6  (  2.074539,  4.227408,  2.119369 )    15.01867601
  WF centre and spread    7  (  4.111730,  4.348315,  5.714250 )    10.13705684
  WF centre and spread    8  (  2.980397,  4.192972,  3.529581 )     5.30030877
  WF centre and spread    9  (  0.588661,  0.213327,  0.695629 )     5.24365537
  WF centre and spread   10  (  1.980739,  3.308524,  2.957935 )    19.22852985
  WF centre and spread   11  (  1.203744,  2.489172,  1.966814 )     9.49658454
  WF centre and spread   12  (  5.196994,  3.746925,  3.483775 )     7.09968205
  WF centre and spread   13  (  1.425982,  1.971070,  2.886514 )    10.90338983
  WF centre and spread   14  (  1.641272,  3.343876,  3.777488 )     6.05267736
  WF centre and spread   15  (  4.457576,  3.157380,  2.600101 )     4.48394323
  WF centre and spread   16  (  3.311932,  0.542222,  2.408846 )    13.67502695
  Sum of centres and spreads ( 43.733965, 43.854577, 46.754174 )   142.69736559
 
      0     0.143E+03     0.0000000000      142.6973655911       1.52  <-- CONV
        O_D=      5.2182717 O_OD=     92.1050148 O_TOT=    142.6973656 <-- SPRD
 ------------------------------------------------------------------------------
 Cycle:      1
  WF centre and spread    1  (  3.477639,  2.272564,  3.475891 )     4.77731701
  WF centre and spread    2  (  2.715703,  2.278062,  1.885235 )     7.55902852
  WF centre and spread    3  (  2.222359,  1.045063,  2.475562 )    13.20177627
  WF centre and spread    4  (  3.392993,  4.132925,  2.065710 )     3.57979167
  WF centre and spread    5  (  2.951197,  2.582836,  4.709470 )     6.74996227
  WF centre and spread    6  (  2.075089,  4.229095,  2.119652 )    14.94631654
  WF centre and spread    7  (  4.112654,  4.349224,  5.714558 )    10.07906481
  WF centre and spread    8  (  2.979859,  4.193457,  3.529451 )     5.28318032
  WF centre and spread    9  (  0.588721,  0.213090,  0.695921 )     5.21899862
  WF centre and spread   10  (  1.989932,  3.316557,  2.965885 )    19.02541784
  WF centre and spread   11  (  1.203114,  2.487826,  1.965934 )     9.45140630
  WF centre and spread   12  (  5.196946,  3.746601,  3.482579 )     7.06653094
  WF centre and spread   13  (  1.425311,  1.971089,  2.886273 )    10.86828134
  WF centre and spread   14  (  1.641609,  3.343854,  3.778598 )     6.00501745
  WF centre and spread   15  (  4.457475,  3.156711,  2.600113 )     4.45862287
  WF centre and spread   16  (  3.312430,  0.541700,  2.408580 )    13.58868663
  Sum of centres and spreads ( 43.743032, 43.860657, 46.759411 )   141.85939941
 
      1    -0.838E+00     3.0635255567      141.8593994075       1.73  <-- CONV
        O_D=      5.0366813 O_OD=     91.4486389 O_TOT=    141.8593994 <-- SPRD
 Delta: O_D= -0.1815903E+00 O_OD= -0.6563758E+00 O_TOT= -0.8379662E+00 <-- DLTA
 ------------------------------------------------------------------------------
 Cycle:      2
  WF centre and spread    1  (  3.485235,  2.259273,  3.503302 )     4.44669686
  WF centre and spread    2  (  2.731879,  2.281362,  1.855466 )     7.23947212
  WF centre and spread    3  (  2.194909,  1.040421,  2.457326 )    11.57030145
  WF centre and spread    4  (  3.387712,  4.124674,  2.037706 )     3.21993695
  WF centre and spread    5  (  2.942557,  2.534948,  4.688664 )     5.40986703
  WF centre and spread    6  (  2.075594,  4.283171,  2.129359 )    13.66817487
  WF centre and spread    7  (  4.146849,  4.388121,  5.729390 )     8.81321073
  WF centre and spread    8  (  2.960847,  4.214389,  3.523238 )     5.07259741
  WF centre and spread    9  (  0.590669,  0.206319,  0.706622 )     4.73887299
  WF centre and spread   10  (  1.985233,  3.263159,  2.988708 )    16.51053597
  WF centre and spread   11  (  1.178992,  2.439867,  1.933179 )     8.50094091
  WF centre and spread   12  (  5.195744,  3.731890,  3.436618 )     6.48165057
  WF centre and spread   13  (  1.399018,  1.973823,  2.875843 )    10.24252399
  WF centre and spread   14  (  1.651342,  3.344134,  3.815455 )     4.92703689
  WF centre and spread   15  (  4.455404,  3.131523,  2.599810 )     3.93574809
  WF centre and spread   16  (  3.327498,  0.525298,  2.401347 )    11.55441886
  Sum of centres and spreads ( 43.709481, 43.742372, 46.682035 )   126.33198568
 
      2    -0.155E+02     2.6420560438      126.3319856770       1.92  <-- CONV
        O_D=      4.1602082 O_OD=     76.7976983 O_TOT=    126.3319857 <-- SPRD
 Delta: O_D= -0.8764731E+00 O_OD= -0.1465094E+02 O_TOT= -0.1552741E+02 <-- DLTA
 ------------------------------------------------------------------------------
 Cycle:      3
  WF centre and spread    1  (  3.489649,  2.248605,  3.521244 )     4.44418002
  WF centre and spread    2  (  2.741250,  2.280474,  1.837882 )     7.38113618
  WF centre and spread    3  (  2.177435,  1.042095,  2.445539 )    11.13439673
  WF centre and spread    4  (  3.385089,  4.118393,  2.021991 )     3.18620060
  WF centre and spread    5  (  2.934989,  2.509185,  4.678597 )     5.09333159
  WF centre and spread    6  (  2.065506,  4.327093,  2.137130 )    13.33533923
  WF centre and spread    7  (  4.168425,  4.415183,  5.743816 )     8.52691530
  WF centre and spread    8  (  2.950390,  4.230642,  3.519031 )     5.17935019
  WF centre and spread    9  (  0.592578,  0.201666,  0.711345 )     4.68276819
  WF centre and spread   10  (  2.001516,  3.210585,  2.995527 )    15.41439115
  WF centre and spread   11  (  1.169161,  2.411772,  1.916243 )     8.29118430
  WF centre and spread   12  (  5.199031,  3.720397,  3.408171 )     6.48357772
  WF centre and spread   13  (  1.384066,  1.972572,  2.868865 )    10.26916707
  WF centre and spread   14  (  1.657263,  3.345677,  3.831120 )     4.65115318
  WF centre and spread   15  (  4.456626,  3.115717,  2.600635 )     3.87118042
  WF centre and spread   16  (  3.325476,  0.513793,  2.400868 )    10.90360018
  Sum of centres and spreads ( 43.698450, 43.663852, 46.638003 )   122.84787204
 
      3    -0.348E+01     2.2071792215      122.8478720403       2.10  <-- CONV
        O_D=      3.3916280 O_OD=     74.0821649 O_TOT=    122.8478720 <-- SPRD
 Delta: O_D= -0.7685803E+00 O_OD= -0.2715533E+01 O_TOT= -0.3484114E+01 <-- DLTA
 ------------------------------------------------------------------------------
 Cycle:      4
  WF centre and spread    1  (  3.493475,  2.236874,  3.537970 )     4.42096839
  WF centre and spread    2  (  2.749276,  2.278958,  1.824276 )     7.52485324
  WF centre and spread    3  (  2.161915,  1.043217,  2.430877 )    10.66679324
  WF centre and spread    4  (  3.382119,  4.110460,  2.008879 )     3.14407182
  WF centre and spread    5  (  2.927719,  2.487338,  4.670515 )     4.77155578
  WF centre and spread    6  (  2.055100,  4.373181,  2.144954 )    12.98259690
  WF centre and spread    7  (  4.189810,  4.442207,  5.761749 )     8.22021885
  WF centre and spread    8  (  2.939822,  4.248990,  3.514798 )     5.27851220
  WF centre and spread    9  (  0.594969,  0.195229,  0.713940 )     4.59390682
  WF centre and spread   10  (  2.015973,  3.167455,  3.007671 )    14.62359140
  WF centre and spread   11  (  1.163498,  2.385273,  1.902095 )     8.01510062
  WF centre and spread   12  (  5.204001,  3.707800,  3.381140 )     6.43912398
  WF centre and spread   13  (  1.369820,  1.967204,  2.863516 )    10.29218651
  WF centre and spread   14  (  1.662639,  3.346382,  3.842044 )     4.34582651
  WF centre and spread   15  (  4.459280,  3.100179,  2.602489 )     3.78924041
  WF centre and spread   16  (  3.317715,  0.500074,  2.398982 )    10.24637439
  Sum of centres and spreads ( 43.687131, 43.590821, 46.605896 )   119.35492109
 
      4    -0.349E+01     2.0400730670      119.3549210909       2.31  <-- CONV
        O_D=      2.9732656 O_OD=     71.0075764 O_TOT=    119.3549211 <-- SPRD
 Delta: O_D= -0.4183624E+00 O_OD= -0.3074589E+01 O_TOT= -0.3492951E+01 <-- DLTA
 ------------------------------------------------------------------------------
 Cycle:      5
  WF centre and spread    1  (  3.496822,  2.224390,  3.551936 )     4.41550991
  WF centre and spread    2  (  2.755551,  2.278542,  1.815244 )     7.69714512
  WF centre and spread    3  (  2.152455,  1.043651,  2.416037 )    10.24019022
  WF centre and spread    4  (  3.378864,  4.101368,  1.999030 )     3.12041359
  WF centre and spread    5  (  2.921459,  2.470583,  4.665214 )     4.53013661
  WF centre and spread    6  (  2.046871,  4.412935,  2.149150 )    12.64914319
  WF centre and spread    7  (  4.210305,  4.468370,  5.780913 )     7.97664735
  WF centre and spread    8  (  2.928676,  4.267989,  3.509850 )     5.38787788
  WF centre and spread    9  (  0.597215,  0.187479,  0.714179 )     4.51457373
  WF centre and spread   10  (  2.020817,  3.136647,  3.014768 )    13.98757502
  WF centre and spread   11  (  1.163159,  2.360647,  1.891726 )     7.75467959
  WF centre and spread   12  (  5.209257,  3.694871,  3.359054 )     6.42597570
  WF centre and spread   13  (  1.358008,  1.957216,  2.861216 )    10.34157923
  WF centre and spread   14  (  1.666836,  3.345553,  3.847826 )     4.11013601
  WF centre and spread   15  (  4.463098,  3.086501,  2.604948 )     3.72493718
  WF centre and spread   16  (  3.307546,  0.486135,  2.395013 )     9.66633509
  Sum of centres and spreads ( 43.676940, 43.522878, 46.576104 )   116.54285540
 
      5    -0.281E+01     1.7922284329      116.5428554038       2.51  <-- CONV
        O_D=      2.8879099 O_OD=     68.2808663 O_TOT=    116.5428554 <-- SPRD
 Delta: O_D= -0.8535565E-01 O_OD= -0.2726710E+01 O_TOT= -0.2812066E+01 <-- DLTA
 ------------------------------------------------------------------------------
 Cycle:      6
  WF centre and spread    1  (  3.499622,  2.212328,  3.562578 )     4.41555643
  WF centre and spread    2  (  2.759389,  2.278669,  1.809708 )     7.86516461
  WF centre and spread    3  (  2.148336,  1.042773,  2.402136 )     9.87215217
  WF centre and spread    4  (  3.376010,  4.092434,  1.992527 )     3.11072608
  WF centre and spread    5  (  2.916806,  2.459232,  4.662596 )     4.38088476
  WF centre and spread    6  (  2.041062,  4.440282,  2.148387 )    12.37217006
  WF centre and spread    7  (  4.228625,  4.490394,  5.797923 )     7.78298975
  WF centre and spread    8  (  2.917384,  4.285403,  3.503963 )     5.47905750
  WF centre and spread    9  (  0.598682,  0.179791,  0.712764 )     4.43805117
  WF centre and spread   10  (  2.022862,  3.113577,  3.019852 )    13.54044650
  WF centre and spread   11  (  1.166228,  2.339892,  1.885025 )     7.51524844
  WF centre and spread   12  (  5.213290,  3.682742,  3.344759 )     6.43562486
  WF centre and spread   13  (  1.349784,  1.945213,  2.861646 )    10.39550213
  WF centre and spread   14  (  1.669566,  3.343314,  3.849268 )     3.94976679
  WF centre and spread   15  (  4.466988,  3.076220,  2.606978 )     3.68661365
  WF centre and spread   16  (  3.297957,  0.474610,  2.390466 )     9.19412065
  Sum of centres and spreads ( 43.672591, 43.456876, 46.550576 )   114.43407555
 
      6    -0.211E+01     1.6340172742      114.4340755528       2.71  <-- CONV
        O_D=      2.6878788 O_OD=     66.3721176 O_TOT=    114.4340756 <-- SPRD
 Delta: O_D= -0.2000311E+00 O_OD= -0.1908749E+01 O_TOT= -0.2108780E+01 <-- DLTA
 ------------------------------------------------------------------------------
 Cycle:      7
  WF centre and spread    1  (  3.499547,  2.208046,  3.564656 )     4.31269945
  WF centre and spread    2  (  2.759199,  2.280560,  1.809476 )     7.70062279
  WF centre and spread    3  (  2.150876,  1.043573,  2.394868 )     9.49694509
  WF centre and spread    4  (  3.376289,  4.087820,  1.991931 )     3.00928118
  WF centre and spread    5  (  2.917003,  2.458798,  4.663527 )     4.21287136
  WF centre and spread    6  (  2.040638,  4.439835,  2.143720 )    11.99035304
  WF centre and spread    7  (  4.236375,  4.497061,  5.804007 )     7.52160370
  WF centre and spread    8  (  2.911349,  4.293042,  3.500942 )     5.33631133
  WF centre and spread    9  (  0.598940,  0.175233,  0.710941 )     4.30080716
  WF centre and spread   10  (  2.022159,  3.114158,  3.028437 )    13.12133745
  WF centre and spread   11  (  1.170816,  2.334064,  1.885350 )     7.20461286
  WF centre and spread   12  (  5.212585,  3.678303,  3.346106 )     6.24454877
  WF centre and spread   13  (  1.356353,  1.942205,  2.863866 )    10.21147513
  WF centre and spread   14  (  1.669959,  3.340048,  3.847065 )     3.77699773
  WF centre and spread   15  (  4.468551,  3.074562,  2.607503 )     3.57930528
  WF centre and spread   16  (  3.294557,  0.474151,  2.390523 )     8.86813090
  Sum of centres and spreads ( 43.685196, 43.441458, 46.552919 )   110.88790320
 
      7    -0.355E+01     1.4808632944      110.8879031964       2.91  <-- CONV
        O_D=      2.4085479 O_OD=     63.1052762 O_TOT=    110.8879032 <-- SPRD
 Delta: O_D= -0.2793310E+00 O_OD= -0.3266841E+01 O_TOT= -0.3546172E+01 <-- DLTA
 ------------------------------------------------------------------------------
 Cycle:      8
  WF centre and spread    1  (  3.499060,  2.201437,  3.567762 )     4.28375452
  WF centre and spread    2  (  2.759631,  2.283722,  1.807760 )     7.69289433
  WF centre and spread    3  (  2.154128,  1.044742,  2.384140 )     9.24218210
  WF centre and spread    4  (  3.375978,  4.081596,  1.991376 )     2.97033403
  WF centre and spread    5  (  2.916291,  2.458172,  4.664115 )     4.15544254
  WF centre and spread    6  (  2.033902,  4.448829,  2.135681 )    11.80619421
  WF centre and spread    7  (  4.245778,  4.506366,  5.813730 )     7.40302100
  WF centre and spread    8  (  2.902446,  4.305301,  3.496062 )     5.30602636
  WF centre and spread    9  (  0.599027,  0.169327,  0.708068 )     4.23222134
  WF centre and spread   10  (  2.017059,  3.113912,  3.024395 )    13.08025160
  WF centre and spread   11  (  1.178348,  2.325690,  1.885926 )     7.00374937
  WF centre and spread   12  (  5.211472,  3.670976,  3.347831 )     6.17066865
  WF centre and spread   13  (  1.354492,  1.934723,  2.874001 )    10.19804356
  WF centre and spread   14  (  1.670681,  3.337026,  3.843041 )     3.71529874
  WF centre and spread   15  (  4.470833,  3.072478,  2.607814 )     3.53895265
  WF centre and spread   16  (  3.288229,  0.471653,  2.389273 )     8.66159007
  Sum of centres and spreads ( 43.677356, 43.425950, 46.540974 )   109.46062507
 
      8    -0.143E+01     0.8753956718      109.4606250673       3.10  <-- CONV
        O_D=      2.3829270 O_OD=     61.7036189 O_TOT=    109.4606251 <-- SPRD
 Delta: O_D= -0.2562086E-01 O_OD= -0.1401657E+01 O_TOT= -0.1427278E+01 <-- DLTA
 ------------------------------------------------------------------------------
 Cycle:      9
  WF centre and spread    1  (  3.499013,  2.193022,  3.572126 )     4.28857210
  WF centre and spread    2  (  2.760372,  2.286754,  1.806636 )     7.76828274
  WF centre and spread    3  (  2.155984,  1.045234,  2.370105 )     8.99276984
  WF centre and spread    4  (  3.375671,  4.074539,  1.989733 )     2.96442216
  WF centre and spread    5  (  2.914504,  2.455940,  4.663917 )     4.12426785
  WF centre and spread    6  (  2.026794,  4.455841,  2.126956 )    11.64466981
  WF centre and spread    7  (  4.258289,  4.517355,  5.824659 )     7.32898949
  WF centre and spread    8  (  2.892450,  4.320588,  3.491035 )     5.33727473
  WF centre and spread    9  (  0.599541,  0.163051,  0.705523 )     4.19638327
  WF centre and spread   10  (  2.015449,  3.099554,  3.032939 )    13.00389973
  WF centre and spread   11  (  1.186293,  2.314843,  1.885231 )     6.84420921
  WF centre and spread   12  (  5.211664,  3.661756,  3.347818 )     6.14611947
  WF centre and spread   13  (  1.363530,  1.929543,  2.873631 )    10.25230931
  WF centre and spread   14  (  1.672594,  3.334178,  3.839488 )     3.68209962
  WF centre and spread   15  (  4.473603,  3.068536,  2.607854 )     3.52321937
  WF centre and spread   16  (  3.280874,  0.467991,  2.388486 )     8.43845072
  Sum of centres and spreads ( 43.686628, 43.388727, 46.526137 )   108.53593940
 
      9    -0.925E+00     0.7688313513      108.5359394046       3.30  <-- CONV
        O_D=      2.2677558 O_OD=     60.8941044 O_TOT=    108.5359394 <-- SPRD
 Delta: O_D= -0.1151712E+00 O_OD= -0.8095145E+00 O_TOT= -0.9246857E+00 <-- DLTA
 ------------------------------------------------------------------------------
 Cycle:     10
  WF centre and spread    1  (  3.499789,  2.175380,  3.582751 )     4.32063802
  WF centre and spread    2  (  2.765739,  2.294564,  1.799152 )     7.98207328
  WF centre and spread    3  (  2.155320,  1.046935,  2.343854 )     8.52845759
  WF centre and spread    4  (  3.374059,  4.061865,  1.983493 )     2.98724297
  WF centre and spread    5  (  2.909428,  2.448290,  4.662288 )     4.04959079
  WF centre and spread    6  (  2.009160,  4.475127,  2.109448 )    11.46301699
  WF centre and spread    7  (  4.283067,  4.536825,  5.844345 )     7.21029305
  WF centre and spread    8  (  2.873371,  4.349883,  3.480306 )     5.45092528
  WF centre and spread    9  (  0.601065,  0.153183,  0.702294 )     4.16119178
  WF centre and spread   10  (  2.014279,  3.076536,  3.037302 )    13.00961387
  WF centre and spread   11  (  1.199585,  2.291695,  1.882417 )     6.58724639
  WF centre and spread   12  (  5.212139,  3.644322,  3.345112 )     6.13739864
  WF centre and spread   13  (  1.353752,  1.917396,  2.893135 )    10.40480387
  WF centre and spread   14  (  1.678346,  3.330776,  3.835525 )     3.63017663
  WF centre and spread   15  (  4.477672,  3.059290,  2.606805 )     3.51039349
  WF centre and spread   16  (  3.272202,  0.460178,  2.387200 )     8.00866737
  Sum of centres and spreads ( 43.678973, 43.322247, 46.495427 )   107.44173000
 
     10    -0.109E+01     0.6534325957      107.4417300038       3.50  <-- CONV
        O_D=      2.3841986 O_OD=     59.6834522 O_TOT=    107.4417300 <-- SPRD
 Delta: O_D=  0.1164428E+00 O_OD= -0.1210652E+01 O_TOT= -0.1094209E+01 <-- DLTA
 ------------------------------------------------------------------------------
 Cycle:     11
  WF centre and spread    1  (  3.501240,  2.152073,  3.596135 )     4.38084138
  WF centre and spread    2  (  2.773797,  2.304158,  1.791377 )     8.30439010
  WF centre and spread    3  (  2.152610,  1.050979,  2.310350 )     7.95099434
  WF centre and spread    4  (  3.372445,  4.046591,  1.973919 )     3.05366799
  WF centre and spread    5  (  2.901384,  2.438282,  4.661237 )     3.96517934
  WF centre and spread    6  (  1.986886,  4.499572,  2.087182 )    11.32597742
  WF centre and spread    7  (  4.314243,  4.557485,  5.866067 )     7.09144125
  WF centre and spread    8  (  2.849314,  4.387280,  3.465411 )     5.63301318
  WF centre and spread    9  (  0.603859,  0.142395,  0.699518 )     4.12516215
  WF centre and spread   10  (  2.017205,  3.041034,  3.044652 )    13.01391295
  WF centre and spread   11  (  1.214692,  2.262774,  1.877133 )     6.29958005
  WF centre and spread   12  (  5.214965,  3.621345,  3.340529 )     6.14758343
  WF centre and spread   13  (  1.350915,  1.903935,  2.905088 )    10.45369095
  WF centre and spread   14  (  1.687651,  3.328652,  3.831898 )     3.57298548
  WF centre and spread   15  (  4.482674,  3.046697,  2.604273 )     3.52145194
  WF centre and spread   16  (  3.265256,  0.454375,  2.385826 )     7.48509306
  Sum of centres and spreads ( 43.689136, 43.237625, 46.440596 )   106.32496501
 
     11    -0.112E+01     0.7999616894      106.3249650149       3.70  <-- CONV
        O_D=      2.3492260 O_OD=     58.6016599 O_TOT=    106.3249650 <-- SPRD
 Delta: O_D= -0.3497262E-01 O_OD= -0.1081792E+01 O_TOT= -0.1116765E+01 <-- DLTA
 ------------------------------------------------------------------------------
 Cycle:     12
  WF centre and spread    1  (  3.502839,  2.131271,  3.607025 )     4.42821490
  WF centre and spread    2  (  2.779179,  2.314234,  1.783973 )     8.61204904
  WF centre and spread    3  (  2.148772,  1.058612,  2.280943 )     7.47561350
  WF centre and spread    4  (  3.371061,  4.033623,  1.963867 )     3.12920138
  WF centre and spread    5  (  2.892125,  2.430644,  4.662383 )     3.89622064
  WF centre and spread    6  (  1.967730,  4.517716,  2.069963 )    11.23540846
  WF centre and spread    7  (  4.340032,  4.572242,  5.883643 )     6.99877343
  WF centre and spread    8  (  2.828134,  4.419517,  3.452195 )     5.80156460
  WF centre and spread    9  (  0.607254,  0.134066,  0.697788 )     4.08644899
  WF centre and spread   10  (  2.018447,  3.009277,  3.048190 )    12.97784793
  WF centre and spread   11  (  1.226252,  2.238371,  1.871354 )     6.05933478
  WF centre and spread   12  (  5.217790,  3.599542,  3.336617 )     6.14695312
  WF centre and spread   13  (  1.342201,  1.890514,  2.918730 )    10.54214633
  WF centre and spread   14  (  1.697342,  3.328023,  3.829689 )     3.53544336
  WF centre and spread   15  (  4.486590,  3.035149,  2.601131 )     3.55049984
  WF centre and spread   16  (  3.260213,  0.453458,  2.386227 )     7.03929997
  Sum of centres and spreads ( 43.685961, 43.166258, 46.393717 )   105.51502026
 
     12    -0.810E+00     0.7940571520      105.5150202613       3.89  <-- CONV
        O_D=      2.3274664 O_OD=     57.8134747 O_TOT=    105.5150203 <-- SPRD
 Delta: O_D= -0.2175956E-01 O_OD= -0.7881852E+00 O_TOT= -0.8099448E+00 <-- DLTA
 ------------------------------------------------------------------------------
 Cycle:     13
  WF centre and spread    1  (  3.502797,  2.129615,  3.608251 )     4.40606530
  WF centre and spread    2  (  2.779952,  2.315776,  1.783666 )     8.60924318
  WF centre and spread    3  (  2.148810,  1.060832,  2.278384 )     7.40434627
  WF centre and spread    4  (  3.371475,  4.032278,  1.962680 )     3.12155115
  WF centre and spread    5  (  2.890403,  2.430606,  4.662741 )     3.87253293
  WF centre and spread    6  (  1.967310,  4.518733,  2.068693 )    11.21341630
  WF centre and spread    7  (  4.341338,  4.573369,  5.885485 )     6.96084028
  WF centre and spread    8  (  2.825436,  4.421575,  3.451365 )     5.78706578
  WF centre and spread    9  (  0.607766,  0.133523,  0.697463 )     4.06642599
  WF centre and spread   10  (  2.017810,  3.004205,  3.045034 )    12.87283786
  WF centre and spread   11  (  1.226403,  2.235537,  1.870339 )     6.01814875
  WF centre and spread   12  (  5.217613,  3.597157,  3.336725 )     6.11218865
  WF centre and spread   13  (  1.340660,  1.891038,  2.924860 )    10.48820588
  WF centre and spread   14  (  1.698254,  3.328093,  3.829626 )     3.51945552
  WF centre and spread   15  (  4.486717,  3.034467,  2.600771 )     3.54411495
  WF centre and spread   16  (  3.260218,  0.454781,  2.386531 )     6.96075788
  Sum of centres and spreads ( 43.682963, 43.161587, 46.392615 )   104.95719667
 
     13    -0.558E+00     0.7376576964      104.9571966678       4.10  <-- CONV
        O_D=      2.2486095 O_OD=     57.3345080 O_TOT=    104.9571967 <-- SPRD
 Delta: O_D= -0.7885693E-01 O_OD= -0.4789667E+00 O_TOT= -0.5578236E+00 <-- DLTA
 ------------------------------------------------------------------------------
 Cycle:     14
  WF centre and spread    1  (  3.502790,  2.125432,  3.610581 )     4.37818384
  WF centre and spread    2  (  2.779540,  2.318665,  1.783158 )     8.64609065
  WF centre and spread    3  (  2.147975,  1.065789,  2.271640 )     7.29200863
  WF centre and spread    4  (  3.372337,  4.028907,  1.959535 )     3.12621050
  WF centre and spread    5  (  2.885849,  2.430587,  4.663794 )     3.85744400
  WF centre and spread    6  (  1.965418,  4.521634,  2.068162 )    11.23623443
  WF centre and spread    7  (  4.344800,  4.575478,  5.889079 )     6.93143625
  WF centre and spread    8  (  2.818986,  4.426537,  3.449815 )     5.78320051
  WF centre and spread    9  (  0.609124,  0.132407,  0.696350 )     4.03487509
  WF centre and spread   10  (  2.014558,  2.998692,  3.045927 )    12.76721471
  WF centre and spread   11  (  1.226585,  2.229147,  1.867322 )     5.95297697
  WF centre and spread   12  (  5.216656,  3.590816,  3.336264 )     6.06924324
  WF centre and spread   13  (  1.335549,  1.890453,  2.934695 )    10.45812812
  WF centre and spread   14  (  1.700615,  3.328591,  3.829017 )     3.50950343
  WF centre and spread   15  (  4.487039,  3.032766,  2.599736 )     3.55027552
  WF centre and spread   16  (  3.259289,  0.458140,  2.387099 )     6.84620509
  Sum of centres and spreads ( 43.667112, 43.154041, 46.392172 )   104.43923097
 
     14    -0.518E+00     0.5195220902      104.4392309681       4.30  <-- CONV
        O_D=      2.2164956 O_OD=     56.8486562 O_TOT=    104.4392310 <-- SPRD
 Delta: O_D= -0.3211384E-01 O_OD= -0.4858519E+00 O_TOT= -0.5179657E+00 <-- DLTA
 ------------------------------------------------------------------------------
 Cycle:     15
  WF centre and spread    1  (  3.502959,  2.120484,  3.613548 )     4.36056864
  WF centre and spread    2  (  2.779881,  2.323935,  1.781499 )     8.70354206
  WF centre and spread    3  (  2.146740,  1.071541,  2.262312 )     7.16755818
  WF centre and spread    4  (  3.373362,  4.024790,  1.955562 )     3.14417423
  WF centre and spread    5  (  2.880567,  2.430654,  4.664733 )     3.85457928
  WF centre and spread    6  (  1.960900,  4.526143,  2.065402 )    11.28751576
  WF centre and spread    7  (  4.349705,  4.577822,  5.893029 )     6.92360168
  WF centre and spread    8  (  2.811139,  4.432953,  3.447372 )     5.78879268
  WF centre and spread    9  (  0.610617,  0.131086,  0.694879 )     4.00656148
  WF centre and spread   10  (  2.006161,  2.998610,  3.031509 )    12.69122855
  WF centre and spread   11  (  1.226776,  2.221344,  1.864028 )     5.89274455
  WF centre and spread   12  (  5.214332,  3.583324,  3.335656 )     6.03981553
  WF centre and spread   13  (  1.333554,  1.888339,  2.942254 )    10.42469900
  WF centre and spread   14  (  1.703718,  3.329308,  3.827719 )     3.50507643
  WF centre and spread   15  (  4.487303,  3.030891,  2.597641 )     3.56817389
  WF centre and spread   16  (  3.258989,  0.462456,  2.387518 )     6.73321836
  Sum of centres and spreads ( 43.646704, 43.153679, 46.364661 )   104.09185033
 
     15    -0.347E+00     0.4849167506      104.0918503278       4.50  <-- CONV
        O_D=      2.1757438 O_OD=     56.5420273 O_TOT=    104.0918503 <-- SPRD
 Delta: O_D= -0.4075180E-01 O_OD= -0.3066288E+00 O_TOT= -0.3473806E+00 <-- DLTA
 ------------------------------------------------------------------------------
 Cycle:     16
  WF centre and spread    1  (  3.502995,  2.111897,  3.618335 )     4.33927630
  WF centre and spread    2  (  2.781913,  2.330232,  1.779247 )     8.80876531
  WF centre and spread    3  (  2.144884,  1.079914,  2.248179 )     6.97466392
  WF centre and spread    4  (  3.374753,  4.018078,  1.949208 )     3.17543689
  WF centre and spread    5  (  2.872714,  2.430731,  4.665965 )     3.85214707
  WF centre and spread    6  (  1.952162,  4.533294,  2.060440 )    11.37245001
  WF centre and spread    7  (  4.357638,  4.582455,  5.899496 )     6.91543202
  WF centre and spread    8  (  2.799293,  4.443375,  3.443714 )     5.80134720
  WF centre and spread    9  (  0.612858,  0.128899,  0.692699 )     3.97173791
  WF centre and spread   10  (  1.997313,  2.990621,  3.012505 )    12.66768722
  WF centre and spread   11  (  1.227550,  2.209177,  1.859260 )     5.80255970
  WF centre and spread   12  (  5.209574,  3.571253,  3.334727 )     5.98510115
  WF centre and spread   13  (  1.329701,  1.884660,  2.958886 )    10.39788164
  WF centre and spread   14  (  1.708815,  3.330720,  3.825320 )     3.50257001
  WF centre and spread   15  (  4.487645,  3.028399,  2.593706 )     3.59977935
  WF centre and spread   16  (  3.259112,  0.468760,  2.388621 )     6.56912448
  Sum of centres and spreads ( 43.618923, 43.142463, 46.330308 )   103.73596018
 
     16    -0.356E+00     0.4704862087      103.7359601817       4.70  <-- CONV
        O_D=      2.2003080 O_OD=     56.1615731 O_TOT=    103.7359602 <-- SPRD
 Delta: O_D=  0.2456411E-01 O_OD= -0.3804543E+00 O_TOT= -0.3558901E+00 <-- DLTA
 ------------------------------------------------------------------------------
 Cycle:     17
  WF centre and spread    1  (  3.503076,  2.102545,  3.623204 )     4.32219379
  WF centre and spread    2  (  2.783442,  2.336906,  1.777566 )     8.92668712
  WF centre and spread    3  (  2.142586,  1.088840,  2.234003 )     6.77126058
  WF centre and spread    4  (  3.376008,  4.011030,  1.942759 )     3.21221147
  WF centre and spread    5  (  2.864850,  2.431149,  4.667258 )     3.85120008
  WF centre and spread    6  (  1.942032,  4.540675,  2.055527 )    11.47807168
  WF centre and spread    7  (  4.366010,  4.587519,  5.906233 )     6.91578233
  WF centre and spread    8  (  2.787695,  4.454685,  3.440055 )     5.81834931
  WF centre and spread    9  (  0.615080,  0.126577,  0.690325 )     3.94102361
  WF centre and spread   10  (  1.992799,  2.975052,  3.004002 )    12.61263769
  WF centre and spread   11  (  1.228875,  2.197158,  1.855182 )     5.71345259
  WF centre and spread   12  (  5.204503,  3.558305,  3.333839 )     5.93988403
  WF centre and spread   13  (  1.331120,  1.880671,  2.972185 )    10.35732885
  WF centre and spread   14  (  1.714207,  3.332688,  3.822572 )     3.50180126
  WF centre and spread   15  (  4.488110,  3.026114,  2.589439 )     3.63656103
  WF centre and spread   16  (  3.259603,  0.475598,  2.390415 )     6.41115170
  Sum of centres and spreads ( 43.599994, 43.125512, 46.304565 )   103.40959713
 
     17    -0.326E+00     0.5742581918      103.4095971294       4.90  <-- CONV
        O_D=      2.1903546 O_OD=     55.8451634 O_TOT=    103.4095971 <-- SPRD
 Delta: O_D= -0.9953358E-02 O_OD= -0.3164097E+00 O_TOT= -0.3263631E+00 <-- DLTA
 ------------------------------------------------------------------------------
 Cycle:     18
  WF centre and spread    1  (  3.503149,  2.088307,  3.629969 )     4.29786232
  WF centre and spread    2  (  2.785258,  2.346452,  1.776263 )     9.10573266
  WF centre and spread    3  (  2.138656,  1.102170,  2.214295 )     6.46226815
  WF centre and spread    4  (  3.377581,  4.000599,  1.933859 )     3.26285116
  WF centre and spread    5  (  2.853801,  2.432371,  4.669249 )     3.84891201
  WF centre and spread    6  (  1.926084,  4.550038,  2.048438 )    11.60805534
  WF centre and spread    7  (  4.378330,  4.595364,  5.916220 )     6.91765564
  WF centre and spread    8  (  2.772029,  4.472059,  3.434832 )     5.84245834
  WF centre and spread    9  (  0.618283,  0.123129,  0.686742 )     3.89939557
  WF centre and spread   10  (  1.967381,  2.959196,  2.992265 )    12.60225164
  WF centre and spread   11  (  1.231720,  2.180610,  1.850738 )     5.58062447
  WF centre and spread   12  (  5.196910,  3.539372,  3.332917 )     5.84551467
  WF centre and spread   13  (  1.333859,  1.877269,  2.992151 )    10.33189268
  WF centre and spread   14  (  1.722381,  3.336579,  3.818273 )     3.50154264
  WF centre and spread   15  (  4.488835,  3.023652,  2.582667 )     3.68912885
  WF centre and spread   16  (  3.261223,  0.486394,  2.394052 )     6.18191345
  Sum of centres and spreads ( 43.555481, 43.113560, 46.272931 )   102.97805960
 
     18    -0.432E+00     0.5843997787      102.9780595951       5.09  <-- CONV
        O_D=      2.2477373 O_OD=     55.3562431 O_TOT=    102.9780596 <-- SPRD
 Delta: O_D=  0.5738272E-01 O_OD= -0.4889203E+00 O_TOT= -0.4315375E+00 <-- DLTA
 ------------------------------------------------------------------------------
 Cycle:     19
  WF centre and spread    1  (  3.502993,  2.086831,  3.630261 )     4.28341423
  WF centre and spread    2  (  2.787541,  2.345585,  1.777008 )     9.10335344
  WF centre and spread    3  (  2.138666,  1.103084,  2.212769 )     6.40744202
  WF centre and spread    4  (  3.377536,  3.999319,  1.933644 )     3.25322144
  WF centre and spread    5  (  2.852903,  2.432600,  4.669340 )     3.83387342
  WF centre and spread    6  (  1.924427,  4.551054,  2.044869 )    11.56885816
  WF centre and spread    7  (  4.379403,  4.596355,  5.917473 )     6.89746605
  WF centre and spread    8  (  2.771283,  4.473572,  3.434360 )     5.82174259
  WF centre and spread    9  (  0.618679,  0.122605,  0.686426 )     3.88735644
  WF centre and spread   10  (  1.975292,  2.962445,  2.980196 )    12.51872071
  WF centre and spread   11  (  1.232466,  2.179166,  1.850742 )     5.54596526
  WF centre and spread   12  (  5.196432,  3.536673,  3.333242 )     5.80658771
  WF centre and spread   13  (  1.335051,  1.875232,  2.994861 )    10.31024617
  WF centre and spread   14  (  1.723057,  3.337142,  3.817456 )     3.48914485
  WF centre and spread   15  (  4.488918,  3.024105,  2.581522 )     3.67883868
  WF centre and spread   16  (  3.261895,  0.487569,  2.395117 )     6.14967986
  Sum of centres and spreads ( 43.566543, 43.113335, 46.259286 )   102.55591102
 
     19    -0.422E+00     0.7014873369      102.5559110245       5.29  <-- CONV
        O_D=      2.1820592 O_OD=     54.9997727 O_TOT=    102.5559110 <-- SPRD
 Delta: O_D= -0.6567817E-01 O_OD= -0.3564704E+00 O_TOT= -0.4221486E+00 <-- DLTA
 ------------------------------------------------------------------------------
 Cycle:     20
  WF centre and spread    1  (  3.502695,  2.083396,  3.630972 )     4.26923378
  WF centre and spread    2  (  2.787718,  2.345746,  1.777964 )     9.12621055
  WF centre and spread    3  (  2.137578,  1.105804,  2.209430 )     6.31716890
  WF centre and spread    4  (  3.377478,  3.996372,  1.932976 )     3.24486980
  WF centre and spread    5  (  2.850686,  2.433123,  4.669524 )     3.81838397
  WF centre and spread    6  (  1.919877,  4.552376,  2.041303 )    11.52750908
  WF centre and spread    7  (  4.381610,  4.598655,  5.920190 )     6.87999237
  WF centre and spread    8  (  2.769363,  4.477233,  3.433346 )     5.79708436
  WF centre and spread    9  (  0.619561,  0.121470,  0.685794 )     3.87376542
  WF centre and spread   10  (  1.961824,  2.960745,  2.975775 )    12.47929764
  WF centre and spread   11  (  1.233450,  2.175974,  1.851084 )     5.49875349
  WF centre and spread   12  (  5.194017,  3.530772,  3.334408 )     5.74834592
  WF centre and spread   13  (  1.336377,  1.873710,  3.002407 )    10.32516000
  WF centre and spread   14  (  1.724640,  3.338651,  3.815832 )     3.47831764
  WF centre and spread   15  (  4.488994,  3.025125,  2.579265 )     3.67395583
  WF centre and spread   16  (  3.262808,  0.490495,  2.397651 )     6.10588924
  Sum of centres and spreads ( 43.548676, 43.109645, 46.257921 )   102.16393800
 
     20    -0.392E+00     0.5344628978      102.1639379971       5.48  <-- CONV
        O_D=      2.1931133 O_OD=     54.5967455 O_TOT=    102.1639380 <-- SPRD
 Delta: O_D=  0.1105415E-01 O_OD= -0.4030272E+00 O_TOT= -0.3919730E+00 <-- DLTA
 ------------------------------------------------------------------------------
 Cycle:     21
  WF centre and spread    1  (  3.502323,  2.079034,  3.632002 )     4.25856506
  WF centre and spread    2  (  2.789030,  2.345773,  1.779533 )     9.17895112
  WF centre and spread    3  (  2.136052,  1.109147,  2.205196 )     6.22240341
  WF centre and spread    4  (  3.377489,  3.992881,  1.931754 )     3.24585384
  WF centre and spread    5  (  2.847907,  2.433502,  4.669748 )     3.80820599
  WF centre and spread    6  (  1.912854,  4.555579,  2.035738 )    11.52787328
  WF centre and spread    7  (  4.384505,  4.601156,  5.923259 )     6.86985911
  WF centre and spread    8  (  2.767023,  4.481901,  3.431820 )     5.78242755
  WF centre and spread    9  (  0.620595,  0.120197,  0.685065 )     3.86344822
  WF centre and spread   10  (  1.956786,  2.957331,  2.974331 )    12.39395146
  WF centre and spread   11  (  1.234706,  2.172153,  1.850930 )     5.45252126
  WF centre and spread   12  (  5.191525,  3.523101,  3.335133 )     5.70473031
  WF centre and spread   13  (  1.339547,  1.872130,  3.009743 )    10.33711068
  WF centre and spread   14  (  1.726877,  3.340459,  3.813974 )     3.47162612
  WF centre and spread   15  (  4.489085,  3.026051,  2.576232 )     3.67728459
  WF centre and spread   16  (  3.263768,  0.494358,  2.400192 )     6.06361851
  Sum of centres and spreads ( 43.540071, 43.104753, 46.254651 )   101.85843051
 
     21    -0.306E+00     0.4618313317      101.8584305058       5.68  <-- CONV
        O_D=      2.1325966 O_OD=     54.3517547 O_TOT=    101.8584305 <-- SPRD
 Delta: O_D= -0.6051670E-01 O_OD= -0.2449908E+00 O_TOT= -0.3055075E+00 <-- DLTA
 ------------------------------------------------------------------------------
 Cycle:     22
  WF centre and spread    1  (  3.501775,  2.070697,  3.634271 )     4.24233027
  WF centre and spread    2  (  2.794239,  2.345424,  1.783347 )     9.29785495
  WF centre and spread    3  (  2.133107,  1.115485,  2.197078 )     6.06643910
  WF centre and spread    4  (  3.377571,  3.986711,  1.928926 )     3.25498968
  WF centre and spread    5  (  2.842601,  2.433610,  4.670332 )     3.79617074
  WF centre and spread    6  (  1.901310,  4.562176,  2.025619 )    11.53878373
  WF centre and spread    7  (  4.390529,  4.604827,  5.928776 )     6.85917605
  WF centre and spread    8  (  2.762783,  4.491062,  3.428635 )     5.76821693
  WF centre and spread    9  (  0.622545,  0.118125,  0.683981 )     3.84709502
  WF centre and spread   10  (  1.950384,  2.952992,  2.961324 )    12.40851386
  WF centre and spread   11  (  1.237113,  2.165169,  1.849614 )     5.36544144
  WF centre and spread   12  (  5.187645,  3.508747,  3.335571 )     5.61740111
  WF centre and spread   13  (  1.348549,  1.866953,  3.021458 )    10.34830256
  WF centre and spread   14  (  1.731594,  3.343775,  3.810726 )     3.46455545
  WF centre and spread   15  (  4.488955,  3.027257,  2.569934 )     3.68455991
  WF centre and spread   16  (  3.266008,  0.501222,  2.404128 )     5.98155090
  Sum of centres and spreads ( 43.536708, 43.094232, 46.233722 )   101.54138170
 
     22    -0.317E+00     0.3838738317      101.5413816968       5.88  <-- CONV
        O_D=      2.1780884 O_OD=     53.9892141 O_TOT=    101.5413817 <-- SPRD
 Delta: O_D=  0.4549182E-01 O_OD= -0.3625406E+00 O_TOT= -0.3170488E+00 <-- DLTA
 ------------------------------------------------------------------------------
 Cycle:     23
  WF centre and spread    1  (  3.501195,  2.058488,  3.637747 )     4.22197287
  WF centre and spread    2  (  2.799429,  2.347155,  1.788246 )     9.48814314
  WF centre and spread    3  (  2.128180,  1.125535,  2.185240 )     5.86716670
  WF centre and spread    4  (  3.377885,  3.978176,  1.924766 )     3.27429128
  WF centre and spread    5  (  2.834716,  2.433257,  4.671378 )     3.78837379
  WF centre and spread    6  (  1.888342,  4.571226,  2.013600 )    11.59109333
  WF centre and spread    7  (  4.399642,  4.608404,  5.936413 )     6.85538365
  WF centre and spread    8  (  2.756925,  4.505011,  3.423415 )     5.76430736
  WF centre and spread    9  (  0.625280,  0.115670,  0.682698 )     3.82872823
  WF centre and spread   10  (  1.943812,  2.948765,  2.951653 )    12.39544882
  WF centre and spread   11  (  1.240600,  2.155437,  1.847254 )     5.25310217
  WF centre and spread   12  (  5.183549,  3.488011,  3.335427 )     5.51865197
  WF centre and spread   13  (  1.357117,  1.860898,  3.038587 )    10.39193882
  WF centre and spread   14  (  1.738868,  3.348954,  3.806586 )     3.46073072
  WF centre and spread   15  (  4.488611,  3.028123,  2.561046 )     3.70530660
  WF centre and spread   16  (  3.270033,  0.510850,  2.409377 )     5.86390022
  Sum of centres and spreads ( 43.534185, 43.083959, 46.213433 )   101.26853968
 
     23    -0.273E+00     0.4693726256      101.2685396838       6.08  <-- CONV
        O_D=      2.1948130 O_OD=     53.6996475 O_TOT=    101.2685397 <-- SPRD
 Delta: O_D=  0.1672460E-01 O_OD= -0.2895666E+00 O_TOT= -0.2728420E+00 <-- DLTA
 ------------------------------------------------------------------------------
 Cycle:     24
  WF centre and spread    1  (  3.500766,  2.046983,  3.640831 )     4.20054180
  WF centre and spread    2  (  2.803847,  2.348893,  1.791924 )     9.68159162
  WF centre and spread    3  (  2.123133,  1.135079,  2.174979 )     5.69928970
  WF centre and spread    4  (  3.378462,  3.970776,  1.920902 )     3.28993513
  WF centre and spread    5  (  2.827330,  2.432455,  4.672534 )     3.78063959
  WF centre and spread    6  (  1.879553,  4.579695,  2.003265 )    11.66212736
  WF centre and spread    7  (  4.408300,  4.610040,  5.942987 )     6.85255295
  WF centre and spread    8  (  2.751832,  4.518201,  3.418132 )     5.76365122
  WF centre and spread    9  (  0.627648,  0.113830,  0.681719 )     3.80981078
  WF centre and spread   10  (  1.938338,  2.942699,  2.943827 )    12.37649008
  WF centre and spread   11  (  1.243510,  2.146827,  1.844402 )     5.15050324
  WF centre and spread   12  (  5.180770,  3.469229,  3.334164 )     5.43829805
  WF centre and spread   13  (  1.364476,  1.857017,  3.053889 )    10.43913326
  WF centre and spread   14  (  1.745773,  3.353906,  3.803267 )     3.45786226
  WF centre and spread   15  (  4.488220,  3.028062,  2.553052 )     3.72634022
  WF centre and spread   16  (  3.274241,  0.519493,  2.413611 )     5.74936265
  Sum of centres and spreads ( 43.536198, 43.073184, 46.193485 )   101.07812990
 
     24    -0.190E+00     0.4971804137      101.0781299049       6.28  <-- CONV
        O_D=      2.2025905 O_OD=     53.5014602 O_TOT=    101.0781299 <-- SPRD
 Delta: O_D=  0.7777491E-02 O_OD= -0.1981873E+00 O_TOT= -0.1904098E+00 <-- DLTA
 ------------------------------------------------------------------------------
 Cycle:     25
  WF centre and spread    1  (  3.500818,  2.046106,  3.641112 )     4.19305353
  WF centre and spread    2  (  2.807040,  2.347924,  1.794123 )     9.68410975
  WF centre and spread    3  (  2.123002,  1.135558,  2.174405 )     5.68051456
  WF centre and spread    4  (  3.378512,  3.970453,  1.920447 )     3.28626100
  WF centre and spread    5  (  2.826688,  2.432200,  4.672679 )     3.77374563
  WF centre and spread    6  (  1.880180,  4.580226,  2.003080 )    11.65356611
  WF centre and spread    7  (  4.409085,  4.609970,  5.943380 )     6.84338313
  WF centre and spread    8  (  2.751546,  4.519255,  3.417836 )     5.75626837
  WF centre and spread    9  (  0.627837,  0.113787,  0.681675 )     3.80298423
  WF centre and spread   10  (  1.943155,  2.940455,  2.945529 )    12.28706390
  WF centre and spread   11  (  1.243597,  2.146109,  1.843727 )     5.13236167
  WF centre and spread   12  (  5.180396,  3.468073,  3.333906 )     5.42146517
  WF centre and spread   13  (  1.360556,  1.853215,  3.050026 )    10.42906297
  WF centre and spread   14  (  1.746341,  3.354237,  3.803215 )     3.45142369
  WF centre and spread   15  (  4.488142,  3.027923,  2.552463 )     3.72314214
  WF centre and spread   16  (  3.274718,  0.519935,  2.413492 )     5.72778134
  Sum of centres and spreads ( 43.541611, 43.065424, 46.191094 )   100.84618720
 
     25    -0.232E+00     0.6477315035      100.8461871967       6.47  <-- CONV
        O_D=      2.1417482 O_OD=     53.3303599 O_TOT=    100.8461872 <-- SPRD
 Delta: O_D= -0.6084236E-01 O_OD= -0.1711004E+00 O_TOT= -0.2319427E+00 <-- DLTA
 ------------------------------------------------------------------------------
 Cycle:     26
  WF centre and spread    1  (  3.500936,  2.044261,  3.641701 )     4.18193073
  WF centre and spread    2  (  2.807504,  2.349266,  1.791833 )     9.70875544
  WF centre and spread    3  (  2.122232,  1.136659,  2.173171 )     5.65082721
  WF centre and spread    4  (  3.378941,  3.969605,  1.919596 )     3.28220848
  WF centre and spread    5  (  2.825413,  2.431669,  4.672954 )     3.76459246
  WF centre and spread    6  (  1.880859,  4.582049,  2.002567 )    11.65079034
  WF centre and spread    7  (  4.410631,  4.609580,  5.944173 )     6.83212922
  WF centre and spread    8  (  2.750844,  4.521376,  3.416811 )     5.74745384
  WF centre and spread    9  (  0.628209,  0.113703,  0.681597 )     3.79232739
  WF centre and spread   10  (  1.942083,  2.936916,  2.942653 )    12.26169441
  WF centre and spread   11  (  1.243896,  2.144558,  1.842376 )     5.10476131
  WF centre and spread   12  (  5.180032,  3.465476,  3.333420 )     5.40091996
  WF centre and spread   13  (  1.363567,  1.854560,  3.051971 )    10.38515424
  WF centre and spread   14  (  1.747606,  3.355078,  3.803046 )     3.44371490
  WF centre and spread   15  (  4.488186,  3.027382,  2.551103 )     3.72142426
  WF centre and spread   16  (  3.275584,  0.521111,  2.413390 )     5.69037726
  Sum of centres and spreads ( 43.546522, 43.063247, 46.182362 )   100.61906144
 
     26    -0.227E+00     0.4572905834      100.6190614378       6.67  <-- CONV
        O_D=      2.1248970 O_OD=     53.1200853 O_TOT=    100.6190614 <-- SPRD
 Delta: O_D= -0.1685117E-01 O_OD= -0.2102746E+00 O_TOT= -0.2271258E+00 <-- DLTA
 ------------------------------------------------------------------------------
 Cycle:     27
  WF centre and spread    1  (  3.501017,  2.041582,  3.642981 )     4.16991460
  WF centre and spread    2  (  2.814108,  2.347960,  1.799237 )     9.73290095
  WF centre and spread    3  (  2.121259,  1.138399,  2.171510 )     5.61764256
  WF centre and spread    4  (  3.379527,  3.968498,  1.918651 )     3.28203774
  WF centre and spread    5  (  2.823688,  2.430924,  4.673350 )     3.75753203
  WF centre and spread    6  (  1.881759,  4.584274,  2.001688 )    11.66660543
  WF centre and spread    7  (  4.412822,  4.608950,  5.945647 )     6.82482053
  WF centre and spread    8  (  2.750165,  4.524762,  3.415844 )     5.74073867
  WF centre and spread    9  (  0.628833,  0.113730,  0.681567 )     3.78154570
  WF centre and spread   10  (  1.947472,  2.940887,  2.947357 )    12.23050828
  WF centre and spread   11  (  1.244403,  2.142461,  1.840497 )     5.07365484
  WF centre and spread   12  (  5.179465,  3.461654,  3.333118 )     5.38437007
  WF centre and spread   13  (  1.364388,  1.854152,  3.053757 )    10.37512861
  WF centre and spread   14  (  1.749522,  3.356371,  3.802765 )     3.43857950
  WF centre and spread   15  (  4.488057,  3.026643,  2.549249 )     3.72384291
  WF centre and spread   16  (  3.276813,  0.522937,  2.413448 )     5.64647569
  Sum of centres and spreads ( 43.563297, 43.064183, 46.190665 )   100.44629811
 
     27    -0.173E+00     0.4312350267      100.4462981091       6.87  <-- CONV
        O_D=      2.1118974 O_OD=     52.9603216 O_TOT=    100.4462981 <-- SPRD
 Delta: O_D= -0.1299959E-01 O_OD= -0.1597637E+00 O_TOT= -0.1727633E+00 <-- DLTA
 ------------------------------------------------------------------------------
 Cycle:     28
  WF centre and spread    1  (  3.500985,  2.037308,  3.644439 )     4.15584846
  WF centre and spread    2  (  2.817793,  2.348196,  1.799444 )     9.77085373
  WF centre and spread    3  (  2.119654,  1.141148,  2.168541 )     5.57215206
  WF centre and spread    4  (  3.380343,  3.966533,  1.916961 )     3.28482922
  WF centre and spread    5  (  2.821128,  2.429941,  4.673913 )     3.75175820
  WF centre and spread    6  (  1.882698,  4.587799,  1.999849 )    11.70495861
  WF centre and spread    7  (  4.416150,  4.607814,  5.947540 )     6.82171315
  WF centre and spread    8  (  2.749008,  4.529704,  3.413775 )     5.73434998
  WF centre and spread    9  (  0.629829,  0.113735,  0.681324 )     3.76868248
  WF centre and spread   10  (  1.942618,  2.934214,  2.938410 )    12.21818589
  WF centre and spread   11  (  1.245347,  2.139344,  1.837716 )     5.03099472
  WF centre and spread   12  (  5.178455,  3.455482,  3.332281 )     5.36636610
  WF centre and spread   13  (  1.364449,  1.853183,  3.055765 )    10.36514050
  WF centre and spread   14  (  1.752658,  3.358484,  3.802112 )     3.43513572
  WF centre and spread   15  (  4.487674,  3.025582,  2.546087 )     3.73154011
  WF centre and spread   16  (  3.278537,  0.525635,  2.413349 )     5.58759683
  Sum of centres and spreads ( 43.567327, 43.054102, 46.171506 )   100.30010574
 
     28    -0.146E+00     0.3849908318      100.3001057433       7.06  <-- CONV
        O_D=      2.0894724 O_OD=     52.8365542 O_TOT=    100.3001057 <-- SPRD
 Delta: O_D= -0.2242500E-01 O_OD= -0.1237674E+00 O_TOT= -0.1461924E+00 <-- DLTA
 ------------------------------------------------------------------------------
 Cycle:     29
  WF centre and spread    1  (  3.500798,  2.033939,  3.645485 )     4.14611137
  WF centre and spread    2  (  2.821047,  2.347005,  1.799972 )     9.81171218
  WF centre and spread    3  (  2.118410,  1.143301,  2.166475 )     5.53936344
  WF centre and spread    4  (  3.381004,  3.964975,  1.915817 )     3.28789755
  WF centre and spread    5  (  2.819296,  2.429223,  4.674352 )     3.74898895
  WF centre and spread    6  (  1.883012,  4.590028,  1.998134 )    11.73682665
  WF centre and spread    7  (  4.418691,  4.607057,  5.949087 )     6.82181074
  WF centre and spread    8  (  2.748215,  4.533428,  3.412178 )     5.72906768
  WF centre and spread    9  (  0.630613,  0.113799,  0.681175 )     3.76059217
  WF centre and spread   10  (  1.944204,  2.929474,  2.937885 )    12.20510500
  WF centre and spread   11  (  1.246141,  2.137062,  1.835637 )     4.99897602
  WF centre and spread   12  (  5.177583,  3.450681,  3.331850 )     5.34999308
  WF centre and spread   13  (  1.365103,  1.852657,  3.057505 )    10.36667213
  WF centre and spread   14  (  1.755133,  3.360099,  3.801521 )     3.43414997
  WF centre and spread   15  (  4.487301,  3.024923,  2.543658 )     3.73885953
  WF centre and spread   16  (  3.279871,  0.527821,  2.413493 )     5.54697022
  Sum of centres and spreads ( 43.576423, 43.045474, 46.164223 )   100.22309669
 
     29    -0.770E-01     0.4054668372      100.2230966929       7.26  <-- CONV
        O_D=      2.0757303 O_OD=     52.7732873 O_TOT=    100.2230967 <-- SPRD
 Delta: O_D= -0.1374210E-01 O_OD= -0.6326695E-01 O_TOT= -0.7700905E-01 <-- DLTA
 ------------------------------------------------------------------------------
 Cycle:     30
  WF centre and spread    1  (  3.500452,  2.028707,  3.647277 )     4.13042910
  WF centre and spread    2  (  2.827299,  2.345682,  1.802623 )     9.87957123
  WF centre and spread    3  (  2.116397,  1.146835,  2.163186 )     5.48553027
  WF centre and spread    4  (  3.382099,  3.962426,  1.914229 )     3.29178949
  WF centre and spread    5  (  2.816577,  2.428250,  4.674984 )     3.74540766
  WF centre and spread    6  (  1.882767,  4.593173,  1.994778 )    11.78561469
  WF centre and spread    7  (  4.422515,  4.605971,  5.951526 )     6.82122506
  WF centre and spread    8  (  2.747149,  4.539325,  3.409834 )     5.71663159
  WF centre and spread    9  (  0.631927,  0.113962,  0.680890 )     3.74793464
  WF centre and spread   10  (  1.950505,  2.929496,  2.939224 )    12.19385398
  WF centre and spread   11  (  1.247494,  2.133671,  1.832910 )     4.94791270
  WF centre and spread   12  (  5.176206,  3.443021,  3.331322 )     5.31596977
  WF centre and spread   13  (  1.367392,  1.851622,  3.061065 )    10.37373502
  WF centre and spread   14  (  1.759055,  3.362669,  3.800458 )     3.43281727
  WF centre and spread   15  (  4.486653,  3.024092,  2.539772 )     3.74992586
  WF centre and spread   16  (  3.282008,  0.531559,  2.413846 )     5.48450131
  Sum of centres and spreads ( 43.596495, 43.040460, 46.157924 )   100.10284964
 
     30    -0.120E+00     0.3869814989      100.1028496389       7.46  <-- CONV
        O_D=      2.0668683 O_OD=     52.6619022 O_TOT=    100.1028496 <-- SPRD
 Delta: O_D= -0.8861985E-02 O_OD= -0.1113851E+00 O_TOT= -0.1202471E+00 <-- DLTA
 ------------------------------------------------------------------------------
 Cycle:     31
  WF centre and spread    1  (  3.499991,  2.026430,  3.647817 )     4.11555450
  WF centre and spread    2  (  2.830291,  2.345350,  1.808139 )     9.90654715
  WF centre and spread    3  (  2.115128,  1.148782,  2.161919 )     5.45142679
  WF centre and spread    4  (  3.382646,  3.961024,  1.914229 )     3.28765844
  WF centre and spread    5  (  2.815858,  2.428219,  4.675066 )     3.74014582
  WF centre and spread    6  (  1.880857,  4.593920,  1.991794 )    11.79110553
  WF centre and spread    7  (  4.423698,  4.605907,  5.952587 )     6.81107004
  WF centre and spread    8  (  2.747090,  4.541878,  3.409054 )     5.69410572
  WF centre and spread    9  (  0.632631,  0.114100,  0.680737 )     3.74016619
  WF centre and spread   10  (  1.942685,  2.921034,  2.931776 )    12.24009414
  WF centre and spread   11  (  1.248169,  2.132435,  1.832388 )     4.91743735
  WF centre and spread   12  (  5.175734,  3.439422,  3.331639 )     5.28056242
  WF centre and spread   13  (  1.371420,  1.852289,  3.064904 )    10.37919757
  WF centre and spread   14  (  1.760761,  3.363793,  3.799655 )     3.42577623
  WF centre and spread   15  (  4.486277,  3.024266,  2.537974 )     3.75024443
  WF centre and spread   16  (  3.282726,  0.533506,  2.414474 )     5.45733379
  Sum of centres and spreads ( 43.595961, 43.032355, 46.154154 )    99.98842611
 
     31    -0.114E+00     0.3109959711       99.9884261111       7.65  <-- CONV
        O_D=      2.1216330 O_OD=     52.4927139 O_TOT=     99.9884261 <-- SPRD
 Delta: O_D=  0.5476471E-01 O_OD= -0.1691882E+00 O_TOT= -0.1144235E+00 <-- DLTA
 ------------------------------------------------------------------------------
 Cycle:     32
  WF centre and spread    1  (  3.499331,  2.023410,  3.648540 )     4.10381758
  WF centre and spread    2  (  2.834680,  2.344808,  1.811403 )     9.94673719
  WF centre and spread    3  (  2.113718,  1.151479,  2.160091 )     5.41504397
  WF centre and spread    4  (  3.383369,  3.959099,  1.914067 )     3.28713564
  WF centre and spread    5  (  2.814834,  2.428136,  4.675242 )     3.73715926
  WF centre and spread    6  (  1.878457,  4.594177,  1.988420 )    11.81245330
  WF centre and spread    7  (  4.425509,  4.605652,  5.953995 )     6.80638422
  WF centre and spread    8  (  2.747031,  4.545368,  3.407752 )     5.67078181
  WF centre and spread    9  (  0.633564,  0.114412,  0.680528 )     3.73356714
  WF centre and spread   10  (  1.944886,  2.926625,  2.931969 )    12.27049728
  WF centre and spread   11  (  1.249209,  2.130729,  1.831837 )     4.88400657
  WF centre and spread   12  (  5.175119,  3.434560,  3.332086 )     5.24549952
  WF centre and spread   13  (  1.374828,  1.852821,  3.069352 )    10.40789811
  WF centre and spread   14  (  1.763208,  3.365426,  3.798603 )     3.42168573
  WF centre and spread   15  (  4.485766,  3.024488,  2.535560 )     3.75546701
  WF centre and spread   16  (  3.284023,  0.536438,  2.415337 )     5.42739540
  Sum of centres and spreads ( 43.607532, 43.037627, 46.154782 )    99.92552973
 
     32    -0.629E-01     0.4625471308       99.9255297281       7.85  <-- CONV
        O_D=      2.1624471 O_OD=     52.3890035 O_TOT=     99.9255297 <-- SPRD
 Delta: O_D=  0.4081407E-01 O_OD= -0.1037105E+00 O_TOT= -0.6289638E-01 <-- DLTA
 ------------------------------------------------------------------------------
 Cycle:     33
  WF centre and spread    1  (  3.498643,  2.020558,  3.648995 )     4.09655773
  WF centre and spread    2  (  2.836824,  2.343597,  1.810230 )     9.95410257
  WF centre and spread    3  (  2.112599,  1.153825,  2.158640 )     5.38630328
  WF centre and spread    4  (  3.383968,  3.957347,  1.913812 )     3.28831750
  WF centre and spread    5  (  2.813863,  2.428024,  4.675474 )     3.73569049
  WF centre and spread    6  (  1.878657,  4.595767,  1.984227 )    11.83715466
  WF centre and spread    7  (  4.427268,  4.605372,  5.955267 )     6.80576614
  WF centre and spread    8  (  2.746985,  4.548514,  3.406423 )     5.65314803
  WF centre and spread    9  (  0.634377,  0.114769,  0.680391 )     3.72897974
  WF centre and spread   10  (  1.949515,  2.924702,  2.934813 )    12.27236750
  WF centre and spread   11  (  1.250119,  2.129116,  1.831068 )     4.85656811
  WF centre and spread   12  (  5.174526,  3.430134,  3.332340 )     5.21994944
  WF centre and spread   13  (  1.376208,  1.852400,  3.071717 )    10.41599900
  WF centre and spread   14  (  1.765528,  3.366928,  3.797638 )     3.41931478
  WF centre and spread   15  (  4.485315,  3.024664,  2.533348 )     3.76165220
  WF centre and spread   16  (  3.285304,  0.539004,  2.416076 )     5.40093155
  Sum of centres and spreads ( 43.619700, 43.034722, 46.150460 )    99.83280271
 
     33    -0.927E-01     0.5447667762       99.8328027099       8.05  <-- CONV
        O_D=      2.1171652 O_OD=     52.3415584 O_TOT=     99.8328027 <-- SPRD
 Delta: O_D= -0.4528188E-01 O_OD= -0.4744514E-01 O_TOT= -0.9272702E-01 <-- DLTA
 ------------------------------------------------------------------------------
 Cycle:     34
  WF centre and spread    1  (  3.498106,  2.018332,  3.649208 )     4.09035228
  WF centre and spread    2  (  2.837398,  2.342747,  1.808205 )     9.98217155
  WF centre and spread    3  (  2.111692,  1.155535,  2.157439 )     5.36430909
  WF centre and spread    4  (  3.384387,  3.956018,  1.913536 )     3.28920701
  WF centre and spread    5  (  2.813053,  2.427844,  4.675701 )     3.73388705
  WF centre and spread    6  (  1.875089,  4.594299,  1.983860 )    11.86034680
  WF centre and spread    7  (  4.428663,  4.605018,  5.956215 )     6.80503382
  WF centre and spread    8  (  2.746881,  4.550826,  3.405320 )     5.63983517
  WF centre and spread    9  (  0.634981,  0.115077,  0.680286 )     3.72546093
  WF centre and spread   10  (  1.949576,  2.920346,  2.931850 )    12.25632029
  WF centre and spread   11  (  1.250767,  2.127880,  1.830340 )     4.83432053
  WF centre and spread   12  (  5.173999,  3.426776,  3.332343 )     5.20116256
  WF centre and spread   13  (  1.375546,  1.850657,  3.071853 )    10.41826953
  WF centre and spread   14  (  1.767333,  3.368063,  3.796971 )     3.41704340
  WF centre and spread   15  (  4.484984,  3.024796,  2.531540 )     3.76632269
  WF centre and spread   16  (  3.286304,  0.540835,  2.416496 )     5.37908608
  Sum of centres and spreads ( 43.618759, 43.025049, 46.141162 )    99.76312877
 
     34    -0.697E-01     0.4003181518       99.7631287731       8.24  <-- CONV
        O_D=      2.0962392 O_OD=     52.2928104 O_TOT=     99.7631288 <-- SPRD
 Delta: O_D= -0.2092597E-01 O_OD= -0.4874796E-01 O_TOT= -0.6967394E-01 <-- DLTA
 ------------------------------------------------------------------------------
 Cycle:     35
  WF centre and spread    1  (  3.497539,  2.015868,  3.649520 )     4.08239704
  WF centre and spread    2  (  2.839910,  2.341621,  1.809642 )    10.00921114
  WF centre and spread    3  (  2.110720,  1.157653,  2.156001 )     5.34024548
  WF centre and spread    4  (  3.384866,  3.954622,  1.913235 )     3.28998284
  WF centre and spread    5  (  2.812103,  2.427661,  4.675961 )     3.73224699
  WF centre and spread    6  (  1.876585,  4.596989,  1.979598 )    11.86863973
  WF centre and spread    7  (  4.430336,  4.604671,  5.957187 )     6.80460246
  WF centre and spread    8  (  2.746848,  4.553685,  3.404225 )     5.62407647
  WF centre and spread    9  (  0.635714,  0.115447,  0.680209 )     3.72116227
  WF centre and spread   10  (  1.948646,  2.916535,  2.927320 )    12.25166444
  WF centre and spread   11  (  1.251398,  2.126529,  1.829393 )     4.80931528
  WF centre and spread   12  (  5.173476,  3.422957,  3.332383 )     5.17884813
  WF centre and spread   13  (  1.375720,  1.849059,  3.072784 )    10.43865813
  WF centre and spread   14  (  1.769410,  3.369447,  3.796204 )     3.41518175
  WF centre and spread   15  (  4.484655,  3.024883,  2.529448 )     3.77117741
  WF centre and spread   16  (  3.287440,  0.542861,  2.416869 )     5.35326799
  Sum of centres and spreads ( 43.625367, 43.020489, 46.129977 )    99.69067755
 
     35    -0.725E-01     0.3947335964       99.6906775456       8.44  <-- CONV
        O_D=      2.0906200 O_OD=     52.2259784 O_TOT=     99.6906775 <-- SPRD
 Delta: O_D= -0.5619232E-02 O_OD= -0.6683200E-01 O_TOT= -0.7245123E-01 <-- DLTA
 ------------------------------------------------------------------------------
 Cycle:     36
  WF centre and spread    1  (  3.496558,  2.011221,  3.650295 )     4.06478459
  WF centre and spread    2  (  2.847386,  2.339706,  1.817962 )    10.07370343
  WF centre and spread    3  (  2.108696,  1.161676,  2.153262 )     5.29520089
  WF centre and spread    4  (  3.386005,  3.952029,  1.912815 )     3.28989491
  WF centre and spread    5  (  2.810328,  2.427146,  4.676466 )     3.72861537
  WF centre and spread    6  (  1.875467,  4.599734,  1.974254 )    11.90300395
  WF centre and spread    7  (  4.433616,  4.603919,  5.959001 )     6.80159781
  WF centre and spread    8  (  2.746904,  4.559239,  3.402229 )     5.59341940
  WF centre and spread    9  (  0.637151,  0.116230,  0.680129 )     3.71284578
  WF centre and spread   10  (  1.945538,  2.911997,  2.918983 )    12.28058018
  WF centre and spread   11  (  1.252574,  2.124060,  1.827512 )     4.76204888
  WF centre and spread   12  (  5.172801,  3.415665,  3.332487 )     5.13647150
  WF centre and spread   13  (  1.380603,  1.849831,  3.079182 )    10.44735229
  WF centre and spread   14  (  1.773372,  3.372136,  3.794822 )     3.41196322
  WF centre and spread   15  (  4.484170,  3.024906,  2.525336 )     3.77916657
  WF centre and spread   16  (  3.289588,  0.546716,  2.417433 )     5.30112217
  Sum of centres and spreads ( 43.640757, 43.016209, 46.122168 )    99.58177094
 
     36    -0.109E+00     0.3565083688       99.5817709357       8.63  <-- CONV
        O_D=      2.1183863 O_OD=     52.0893055 O_TOT=     99.5817709 <-- SPRD
 Delta: O_D=  0.2776628E-01 O_OD= -0.1366729E+00 O_TOT= -0.1089066E+00 <-- DLTA
 ------------------------------------------------------------------------------
 Cycle:     37
  WF centre and spread    1  (  3.496386,  2.010303,  3.650367 )     4.06154407
  WF centre and spread    2  (  2.847551,  2.340404,  1.814938 )    10.05540956
  WF centre and spread    3  (  2.108316,  1.162166,  2.152965 )     5.28378115
  WF centre and spread    4  (  3.386274,  3.951524,  1.912649 )     3.28860835
  WF centre and spread    5  (  2.809975,  2.426923,  4.676622 )     3.72486661
  WF centre and spread    6  (  1.873198,  4.599008,  1.973904 )    11.90605705
  WF centre and spread    7  (  4.434378,  4.603690,  5.959414 )     6.79866711
  WF centre and spread    8  (  2.746943,  4.560253,  3.401743 )     5.58950448
  WF centre and spread    9  (  0.637427,  0.116508,  0.680138 )     3.71029676
  WF centre and spread   10  (  1.948701,  2.911027,  2.922097 )    12.26685597
  WF centre and spread   11  (  1.252858,  2.123573,  1.827017 )     4.74909144
  WF centre and spread   12  (  5.172709,  3.414295,  3.332510 )     5.12706432
  WF centre and spread   13  (  1.381145,  1.850881,  3.080865 )    10.45161180
  WF centre and spread   14  (  1.774171,  3.372673,  3.794629 )     3.40848543
  WF centre and spread   15  (  4.484072,  3.024745,  2.524520 )     3.77804168
  WF centre and spread   16  (  3.290033,  0.547467,  2.417327 )     5.28518700
  Sum of centres and spreads ( 43.644136, 43.015440, 46.121706 )    99.48507280
 
     37    -0.967E-01     0.3943592315       99.4850727957       8.83  <-- CONV
        O_D=      2.0823924 O_OD=     52.0286012 O_TOT=     99.4850728 <-- SPRD
 Delta: O_D= -0.3599387E-01 O_OD= -0.6070427E-01 O_TOT= -0.9669814E-01 <-- DLTA
 ------------------------------------------------------------------------------
 Cycle:     38
  WF centre and spread    1  (  3.496328,  2.010015,  3.650424 )     4.06059870
  WF centre and spread    2  (  2.848223,  2.340655,  1.815165 )    10.06029045
  WF centre and spread    3  (  2.108207,  1.162401,  2.152794 )     5.28055457
  WF centre and spread    4  (  3.386357,  3.951359,  1.912596 )     3.28827990
  WF centre and spread    5  (  2.809850,  2.426850,  4.676667 )     3.72403576
  WF centre and spread    6  (  1.872813,  4.598998,  1.973715 )    11.90921403
  WF centre and spread    7  (  4.434652,  4.603622,  5.959505 )     6.79805386
  WF centre and spread    8  (  2.746970,  4.560643,  3.401614 )     5.58774929
  WF centre and spread    9  (  0.637531,  0.116604,  0.680141 )     3.70946516
  WF centre and spread   10  (  1.951065,  2.914306,  2.924388 )    12.26234114
  WF centre and spread   11  (  1.252929,  2.123415,  1.826895 )     4.74538533
  WF centre and spread   12  (  5.172647,  3.413808,  3.332516 )     5.12411476
  WF centre and spread   13  (  1.381135,  1.850877,  3.081195 )    10.45386102
  WF centre and spread   14  (  1.774453,  3.372872,  3.794560 )     3.40784294
  WF centre and spread   15  (  4.484028,  3.024708,  2.524221 )     3.77798726
  WF centre and spread   16  (  3.290195,  0.547743,  2.417292 )     5.28063319
  Sum of centres and spreads ( 43.647382, 43.018876, 46.123688 )    99.47040734
 
     38    -0.147E-01     0.3984858586       99.4704073423       9.02  <-- CONV
        O_D=      2.0800423 O_OD=     52.0162859 O_TOT=     99.4704073 <-- SPRD
 Delta: O_D= -0.2350120E-02 O_OD= -0.1231533E-01 O_TOT= -0.1466545E-01 <-- DLTA
 ------------------------------------------------------------------------------
 Cycle:     39
  WF centre and spread    1  (  3.495954,  2.008411,  3.650555 )     4.05329206
  WF centre and spread    2  (  2.850708,  2.340564,  1.817291 )    10.07645976
  WF centre and spread    3  (  2.107548,  1.163727,  2.151892 )     5.26442922
  WF centre and spread    4  (  3.386717,  3.950510,  1.912371 )     3.28607601
  WF centre and spread    5  (  2.809193,  2.426498,  4.676896 )     3.72041522
  WF centre and spread    6  (  1.872307,  4.600075,  1.972201 )    11.92242708
[...]
 
     90    -0.282E-02     0.1948031813       98.6919466827      19.34  <-- CONV
        O_D=      2.0992987 O_OD=     51.2185689 O_TOT=     98.6919467 <-- SPRD
 Delta: O_D=  0.8647471E-03 O_OD= -0.3682664E-02 O_TOT= -0.2817917E-02 <-- DLTA
 ------------------------------------------------------------------------------
 Cycle:     91
  WF centre and spread    1  (  3.489427,  1.983340,  3.651387 )     3.93880189
  WF centre and spread    2  (  2.885839,  2.339639,  1.831973 )    10.30935398
  WF centre and spread    3  (  2.096410,  1.186774,  2.138915 )     5.04172099
  WF centre and spread    4  (  3.394257,  3.936886,  1.912077 )     3.26533753
  WF centre and spread    5  (  2.801808,  2.422381,  4.679623 )     3.66789589
  WF centre and spread    6  (  1.860331,  4.617954,  1.941563 )    12.23615411
  WF centre and spread    7  (  4.457855,  4.599084,  5.966153 )     6.74620806
  WF centre and spread    8  (  2.751133,  4.592783,  3.390293 )     5.37180683
  WF centre and spread    9  (  0.648261,  0.126771,  0.681090 )     3.64773768
  WF centre and spread   10  (  1.944691,  2.880740,  2.888128 )    12.46184701
  WF centre and spread   11  (  1.256792,  2.112742,  1.816727 )     4.44706895
  WF centre and spread   12  (  5.168175,  3.370463,  3.333229 )     4.86638905
  WF centre and spread   13  (  1.394263,  1.852690,  3.104795 )    10.59725301
  WF centre and spread   14  (  1.801338,  3.391379,  3.786650 )     3.34963248
  WF centre and spread   15  (  4.480729,  3.022593,  2.495359 )     3.80474703
  WF centre and spread   16  (  3.304243,  0.570207,  2.415487 )     4.93314222
  Sum of centres and spreads ( 43.735553, 43.006427, 46.033448 )    98.68509672
 
     91    -0.685E-02     0.2974022145       98.6850967155      19.54  <-- CONV
        O_D=      2.1048436 O_OD=     51.2061740 O_TOT=     98.6850967 <-- SPRD
 Delta: O_D=  0.5544897E-02 O_OD= -0.1239486E-01 O_TOT= -0.6849967E-02 <-- DLTA
 ------------------------------------------------------------------------------
 Cycle:     92
  WF centre and spread    1  (  3.489388,  1.983190,  3.651396 )     3.93799274
  WF centre and spread    2  (  2.886140,  2.339706,  1.832140 )    10.31014606
  WF centre and spread    3  (  2.096353,  1.186932,  2.138842 )     5.04046325
  WF centre and spread    4  (  3.394311,  3.936812,  1.912091 )     3.26511754
  WF centre and spread    5  (  2.801769,  2.422357,  4.679636 )     3.66753688
  WF centre and spread    6  (  1.862293,  4.616636,  1.942919 )    12.24121054
  WF centre and spread    7  (  4.458001,  4.599037,  5.966178 )     6.74561524
  WF centre and spread    8  (  2.751174,  4.592985,  3.390241 )     5.37029359
  WF centre and spread    9  (  0.648336,  0.126852,  0.681107 )     3.64734790
  WF centre and spread   10  (  1.945944,  2.881944,  2.888991 )    12.46686052
  WF centre and spread   11  (  1.256813,  2.112698,  1.816694 )     4.44527883
  WF centre and spread   12  (  5.168148,  3.370201,  3.333239 )     4.86471902
  WF centre and spread   13  (  1.394273,  1.852608,  3.104842 )    10.59768271
  WF centre and spread   14  (  1.801513,  3.391503,  3.786601 )     3.34919873
  WF centre and spread   15  (  4.480714,  3.022576,  2.495172 )     3.80480810
  WF centre and spread   16  (  3.304335,  0.570350,  2.415471 )     4.93081743
  Sum of centres and spreads ( 43.739506, 43.006386, 46.035561 )    98.68508907
 
     92    -0.764E-05     0.4856203268       98.6850890722      19.73  <-- CONV
        O_D=      2.1102066 O_OD=     51.2008033 O_TOT=     98.6850891 <-- SPRD
 Delta: O_D=  0.5363036E-02 O_OD= -0.5370680E-02 O_TOT= -0.7643334E-05 <-- DLTA
 ------------------------------------------------------------------------------
 Cycle:     93
  WF centre and spread    1  (  3.489386,  1.983186,  3.651394 )     3.93798021
  WF centre and spread    2  (  2.886141,  2.339712,  1.832130 )    10.31017188
  WF centre and spread    3  (  2.096351,  1.186935,  2.138841 )     5.04044359
  WF centre and spread    4  (  3.394310,  3.936812,  1.912092 )     3.26513286
  WF centre and spread    5  (  2.801770,  2.422356,  4.679636 )     3.66754032
  WF centre and spread    6  (  1.860870,  4.618121,  1.941397 )    12.23809643
  WF centre and spread    7  (  4.458003,  4.599038,  5.966178 )     6.74563341
  WF centre and spread    8  (  2.751174,  4.592986,  3.390239 )     5.37027869
  WF centre and spread    9  (  0.648338,  0.126853,  0.681107 )     3.64734507
  WF centre and spread   10  (  1.945864,  2.881847,  2.888915 )    12.46678612
  WF centre and spread   11  (  1.256812,  2.112697,  1.816692 )     4.44525254
  WF centre and spread   12  (  5.168147,  3.370197,  3.333239 )     4.86470165
  WF centre and spread   13  (  1.394271,  1.852621,  3.104849 )    10.59774155
  WF centre and spread   14  (  1.801515,  3.391505,  3.786600 )     3.34918817
  WF centre and spread   15  (  4.480711,  3.022574,  2.495167 )     3.80482153
  WF centre and spread   16  (  3.304336,  0.570350,  2.415469 )     4.93082032
  Sum of centres and spreads ( 43.738000, 43.007791, 46.033944 )    98.68193435
 
     93    -0.315E-02     1.2161154249       98.6819343454      19.93  <-- CONV
        O_D=      2.1069249 O_OD=     51.2009303 O_TOT=     98.6819343 <-- SPRD
 Delta: O_D= -0.3281700E-02 O_OD=  0.1269736E-03 O_TOT= -0.3154727E-02 <-- DLTA
 ------------------------------------------------------------------------------
 Cycle:     94
  WF centre and spread    1  (  3.489381,  1.983168,  3.651391 )     3.93787014
  WF centre and spread    2  (  2.886143,  2.339712,  1.832118 )    10.31012825
  WF centre and spread    3  (  2.096339,  1.186952,  2.138832 )     5.04029132
  WF centre and spread    4  (  3.394318,  3.936800,  1.912093 )     3.26510965
  WF centre and spread    5  (  2.801767,  2.422357,  4.679638 )     3.66747747
  WF centre and spread    6  (  1.862088,  4.617667,  1.941929 )    12.23634295
  WF centre and spread    7  (  4.458022,  4.599037,  5.966176 )     6.74572229
  WF centre and spread    8  (  2.751178,  4.593006,  3.390229 )     5.37010707
  WF centre and spread    9  (  0.648346,  0.126863,  0.681107 )     3.64730697
  WF centre and spread   10  (  1.945342,  2.881232,  2.888432 )    12.46654993
  WF centre and spread   11  (  1.256815,  2.112692,  1.816684 )     4.44502088
  WF centre and spread   12  (  5.168146,  3.370169,  3.333236 )     4.86453700
  WF centre and spread   13  (  1.394343,  1.852679,  3.104909 )    10.59796118
  WF centre and spread   14  (  1.801536,  3.391517,  3.786592 )     3.34912679
  WF centre and spread   15  (  4.480711,  3.022573,  2.495143 )     3.80487586
  WF centre and spread   16  (  3.304346,  0.570364,  2.415469 )     4.93052476
  Sum of centres and spreads ( 43.738822, 43.006785, 46.033979 )    98.67895253
 
     94    -0.298E-02     0.4407059694       98.6789525306      20.13  <-- CONV
        O_D=      2.1046756 O_OD=     51.2001977 O_TOT=     98.6789525 <-- SPRD
 Delta: O_D= -0.2249277E-02 O_OD= -0.7325373E-03 O_TOT= -0.2981815E-02 <-- DLTA
 ------------------------------------------------------------------------------
 Cycle:     95
  WF centre and spread    1  (  3.489373,  1.983143,  3.651387 )     3.93773630
  WF centre and spread    2  (  2.886158,  2.339731,  1.832101 )    10.31016003
  WF centre and spread    3  (  2.096325,  1.186975,  2.138819 )     5.04009838
  WF centre and spread    4  (  3.394325,  3.936787,  1.912096 )     3.26510063
  WF centre and spread    5  (  2.801765,  2.422356,  4.679640 )     3.66741397
  WF centre and spread    6  (  1.861420,  4.619066,  1.940538 )    12.23423193
  WF centre and spread    7  (  4.458045,  4.599037,  5.966173 )     6.74581035
  WF centre and spread    8  (  2.751183,  4.593031,  3.390218 )     5.36989444
  WF centre and spread    9  (  0.648357,  0.126875,  0.681107 )     3.64725824
  WF centre and spread   10  (  1.944912,  2.880719,  2.888033 )    12.46659127
  WF centre and spread   11  (  1.256818,  2.112684,  1.816674 )     4.44473668
  WF centre and spread   12  (  5.168144,  3.370131,  3.333234 )     4.86432685
  WF centre and spread   13  (  1.394415,  1.852757,  3.104986 )    10.59826825
  WF centre and spread   14  (  1.801562,  3.391534,  3.786584 )     3.34904338
  WF centre and spread   15  (  4.480707,  3.022569,  2.495109 )     3.80494293
  WF centre and spread   16  (  3.304358,  0.570380,  2.415465 )     4.93020937
  Sum of centres and spreads ( 43.737867, 43.007775, 46.032165 )    98.67582300
 
     95    -0.313E-02     0.5901989149       98.6758230002      20.32  <-- CONV
        O_D=      2.1021263 O_OD=     51.1996175 O_TOT=     98.6758230 <-- SPRD
 Delta: O_D= -0.2549308E-02 O_OD= -0.5802222E-03 O_TOT= -0.3129530E-02 <-- DLTA
 ------------------------------------------------------------------------------
 Cycle:     96
  WF centre and spread    1  (  3.489366,  1.983114,  3.651388 )     3.93758241
  WF centre and spread    2  (  2.886205,  2.339758,  1.832120 )    10.31042082
  WF centre and spread    3  (  2.096308,  1.187005,  2.138801 )     5.03983847
  WF centre and spread    4  (  3.394338,  3.936767,  1.912098 )     3.26507468
  WF centre and spread    5  (  2.801759,  2.422353,  4.679643 )     3.66731669
  WF centre and spread    6  (  1.862358,  4.618722,  1.940946 )    12.23437282
  WF centre and spread    7  (  4.458076,  4.599032,  5.966171 )     6.74584901
  WF centre and spread    8  (  2.751191,  4.593067,  3.390204 )     5.36960246
  WF centre and spread    9  (  0.648372,  0.126892,  0.681108 )     3.64718165
  WF centre and spread   10  (  1.945140,  2.880954,  2.888268 )    12.46567246
  WF centre and spread   11  (  1.256823,  2.112676,  1.816669 )     4.44437029
  WF centre and spread   12  (  5.168141,  3.370080,  3.333232 )     4.86401720
  WF centre and spread   13  (  1.394519,  1.852837,  3.105092 )    10.59865591
  WF centre and spread   14  (  1.801597,  3.391556,  3.786573 )     3.34894785
  WF centre and spread   15  (  4.480705,  3.022566,  2.495066 )     3.80500634
  WF centre and spread   16  (  3.304375,  0.570408,  2.415463 )     4.92973721
  Sum of centres and spreads ( 43.739274, 43.007788, 46.032841 )    98.67364628
 
     96    -0.218E-02     0.3567473396       98.6736462769      20.52  <-- CONV
        O_D=      2.1007985 O_OD=     51.1987686 O_TOT=     98.6736463 <-- SPRD
 Delta: O_D= -0.1327837E-02 O_OD= -0.8488861E-03 O_TOT= -0.2176723E-02 <-- DLTA
 ------------------------------------------------------------------------------
 Cycle:     97
  WF centre and spread    1  (  3.489357,  1.983081,  3.651386 )     3.93741373
  WF centre and spread    2  (  2.886248,  2.339784,  1.832122 )    10.31059566
  WF centre and spread    3  (  2.096292,  1.187035,  2.138784 )     5.03958320
  WF centre and spread    4  (  3.394349,  3.936750,  1.912102 )     3.26505664
  WF centre and spread    5  (  2.801754,  2.422348,  4.679645 )     3.66723388
  WF centre and spread    6  (  1.861733,  4.619565,  1.940087 )    12.23463392
  WF centre and spread    7  (  4.458106,  4.599024,  5.966171 )     6.74583229
  WF centre and spread    8  (  2.751198,  4.593103,  3.390190 )     5.36930892
  WF centre and spread    9  (  0.648387,  0.126908,  0.681109 )     3.64710680
  WF centre and spread   10  (  1.945186,  2.880975,  2.888324 )    12.46565018
  WF centre and spread   11  (  1.256827,  2.112666,  1.816662 )     4.44399850
  WF centre and spread   12  (  5.168137,  3.370028,  3.333231 )     4.86370068
  WF centre and spread   13  (  1.394599,  1.852912,  3.105185 )    10.59899384
  WF centre and spread   14  (  1.801632,  3.391580,  3.786562 )     3.34883946
  WF centre and spread   15  (  4.480700,  3.022561,  2.495022 )     3.80505951
  WF centre and spread   16  (  3.304391,  0.570433,  2.415457 )     4.92930300
  Sum of centres and spreads ( 43.738895, 43.008753, 46.032038 )    98.67231022
 
     97    -0.134E-02     0.3467845855       98.6723102225      20.72  <-- CONV
        O_D=      2.1002543 O_OD=     51.1979767 O_TOT=     98.6723102 <-- SPRD
 Delta: O_D= -0.5441429E-03 O_OD= -0.7919115E-03 O_TOT= -0.1336054E-02 <-- DLTA
 ------------------------------------------------------------------------------
 Cycle:     98
  WF centre and spread    1  (  3.489327,  1.982960,  3.651375 )     3.93675257
  WF centre and spread    2  (  2.886347,  2.339805,  1.832098 )    10.31073988
  WF centre and spread    3  (  2.096233,  1.187143,  2.138727 )     5.03868810
  WF centre and spread    4  (  3.394389,  3.936684,  1.912112 )     3.26494542
  WF centre and spread    5  (  2.801732,  2.422327,  4.679652 )     3.66692510
  WF centre and spread    6  (  1.861949,  4.619396,  1.940274 )    12.23706880
  WF centre and spread    7  (  4.458211,  4.598985,  5.966180 )     6.74563028
  WF centre and spread    8  (  2.751221,  4.593229,  3.390137 )     5.36823437
  WF centre and spread    9  (  0.648440,  0.126963,  0.681118 )     3.64684050
  WF centre and spread   10  (  1.943044,  2.878529,  2.886286 )    12.46874206
  WF centre and spread   11  (  1.256841,  2.112633,  1.816627 )     4.44262256
  WF centre and spread   12  (  5.168123,  3.369835,  3.333227 )     4.86253050
  WF centre and spread   13  (  1.394872,  1.853121,  3.105472 )    10.60001014
  WF centre and spread   14  (  1.801758,  3.391661,  3.786520 )     3.34844188
  WF centre and spread   15  (  4.480687,  3.022546,  2.494870 )     3.80520985
  WF centre and spread   16  (  3.304448,  0.570517,  2.415443 )     4.92764695
  Sum of centres and spreads ( 43.737622, 43.006335, 46.030118 )    98.67102895
 
     98    -0.128E-02     0.3033350967       98.6710289489      20.92  <-- CONV
        O_D=      2.1028251 O_OD=     51.1941247 O_TOT=     98.6710289 <-- SPRD
 Delta: O_D=  0.2570752E-02 O_OD= -0.3852025E-02 O_TOT= -0.1281274E-02 <-- DLTA
 ------------------------------------------------------------------------------
 Cycle:     99
  WF centre and spread    1  (  3.489326,  1.982957,  3.651377 )     3.93676727
  WF centre and spread    2  (  2.886373,  2.339820,  1.832120 )    10.31102847
  WF centre and spread    3  (  2.096233,  1.187147,  2.138724 )     5.03866383
  WF centre and spread    4  (  3.394390,  3.936683,  1.912112 )     3.26495350
  WF centre and spread    5  (  2.801732,  2.422326,  4.679652 )     3.66692619
  WF centre and spread    6  (  1.861795,  4.619476,  1.940184 )    12.23697696
  WF centre and spread    7  (  4.458214,  4.598983,  5.966180 )     6.74561723
  WF centre and spread    8  (  2.751222,  4.593235,  3.390137 )     5.36820566
  WF centre and spread    9  (  0.648442,  0.126966,  0.681118 )     3.64683104
  WF centre and spread   10  (  1.944168,  2.879742,  2.887378 )    12.46584045
  WF centre and spread   11  (  1.256841,  2.112632,  1.816630 )     4.44260556
  WF centre and spread   12  (  5.168122,  3.369829,  3.333228 )     4.86249445
  WF centre and spread   13  (  1.394869,  1.853118,  3.105480 )    10.60006912
  WF centre and spread   14  (  1.801762,  3.391664,  3.786520 )     3.34844335
  WF centre and spread   15  (  4.480686,  3.022545,  2.494865 )     3.80520981
  WF centre and spread   16  (  3.304450,  0.570523,  2.415442 )     4.92762173
  Sum of centres and spreads ( 43.738625, 43.007645, 46.031148 )    98.66825463
 
     99    -0.277E-02     0.8821537476       98.6682546265      21.15  <-- CONV
        O_D=      2.0998404 O_OD=     51.1943351 O_TOT=     98.6682546 <-- SPRD
 Delta: O_D= -0.2984743E-02 O_OD=  0.2104206E-03 O_TOT= -0.2774322E-02 <-- DLTA
 ------------------------------------------------------------------------------
 Cycle:    100
  WF centre and spread    1  (  3.489299,  1.982838,  3.651372 )     3.93618778
  WF centre and spread    2  (  2.886553,  2.339861,  1.832159 )    10.31145989
  WF centre and spread    3  (  2.096192,  1.187259,  2.138669 )     5.03783623
  WF centre and spread    4  (  3.394423,  3.936630,  1.912120 )     3.26483770
  WF centre and spread    5  (  2.801706,  2.422295,  4.679655 )     3.66674284
  WF centre and spread    6  (  1.859940,  4.619396,  1.940107 )    12.24035667
  WF centre and spread    7  (  4.458306,  4.598914,  5.966203 )     6.74504645
  WF centre and spread    8  (  2.751246,  4.593369,  3.390094 )     5.36712786
  WF centre and spread    9  (  0.648497,  0.127020,  0.681134 )     3.64658544
  WF centre and spread   10  (  1.944244,  2.879742,  2.887324 )    12.46768329
  WF centre and spread   11  (  1.256854,  2.112599,  1.816606 )     4.44130998
  WF centre and spread   12  (  5.168098,  3.369629,  3.333231 )     4.86132745
  WF centre and spread   13  (  1.394865,  1.853031,  3.105525 )    10.60012160
  WF centre and spread   14  (  1.801885,  3.391751,  3.786481 )     3.34806393
  WF centre and spread   15  (  4.480671,  3.022526,  2.494725 )     3.80523776
  WF centre and spread   16  (  3.304510,  0.570610,  2.415419 )     4.92602122
  Sum of centres and spreads ( 43.737291, 43.007471, 46.030824 )    98.66594608
 
    100    -0.231E-02     0.1883132939       98.6659460790      21.36  <-- CONV
        O_D=      2.1012294 O_OD=     51.1906375 O_TOT=     98.6659461 <-- SPRD
 Delta: O_D=  0.1389045E-02 O_OD= -0.3697593E-02 O_TOT= -0.2308548E-02 <-- DLTA
 ------------------------------------------------------------------------------

 Writing checkpoint file wannier90.chk... done

 Final State
  WF centre and spread    1  (  3.489299,  1.982838,  3.651372 )     3.93618778
  WF centre and spread    2  (  2.886553,  2.339861,  1.832159 )    10.31145989
  WF centre and spread    3  (  2.096192,  1.187259,  2.138669 )     5.03783623
  WF centre and spread    4  (  3.394423,  3.936630,  1.912120 )     3.26483770
  WF centre and spread    5  (  2.801706,  2.422295,  4.679655 )     3.66674284
  WF centre and spread    6  (  1.859940,  4.619396,  1.940107 )    12.24035667
  WF centre and spread    7  (  4.458306,  4.598914,  5.966203 )     6.74504645
  WF centre and spread    8  (  2.751246,  4.593369,  3.390094 )     5.36712786
  WF centre and spread    9  (  0.648497,  0.127020,  0.681134 )     3.64658544
  WF centre and spread   10  (  1.944244,  2.879742,  2.887324 )    12.46768329
  WF centre and spread   11  (  1.256854,  2.112599,  1.816606 )     4.44130998
  WF centre and spread   12  (  5.168098,  3.369629,  3.333231 )     4.86132745
  WF centre and spread   13  (  1.394865,  1.853031,  3.105525 )    10.60012160
  WF centre and spread   14  (  1.801885,  3.391751,  3.786481 )     3.34806393
  WF centre and spread   15  (  4.480671,  3.022526,  2.494725 )     3.80523776
  WF centre and spread   16  (  3.304510,  0.570610,  2.415419 )     4.92602122
  Sum of centres and spreads ( 43.737291, 43.007471, 46.030824 )    98.66594608
 
         Spreads (Ang^2)       Omega I      =    45.374079152
        ================       Omega D      =     2.101229401
                               Omega OD     =    51.190637525
    Final Spread (Ang^2)       Omega Total  =    98.665946079
 ------------------------------------------------------------------------------
 Time for wannierise           19.912 (sec)

 Writing checkpoint file wannier90.chk... done

 Total Execution Time          21.420 (sec)

 *===========================================================================*
 |                             TIMING INFORMATION                            |
 *===========================================================================*
 |    Tag                                                Ncalls      Time (s)|
 |---------------------------------------------------------------------------|
 |kmesh: get                                        :         1         0.172|
 |overlap: read                                     :         1         1.292|
 |wann: main                                        :         1        19.912|
 *---------------------------------------------------------------------------*
 
 All done: wannier90 exiting
