       N       E                     dE             d eps       ncg     rms          rms(c)
DAV:   1     0.214266339004E+03    0.21427E+03   -0.13173E+04  1709   0.188E+03
DAV:   2     0.103043188225E+02   -0.20396E+03   -0.20024E+03  1888   0.424E+02
DAV:   3    -0.121874368798E+02   -0.22492E+02   -0.21882E+02  2174   0.129E+02
DAV:   4    -0.129095193910E+02   -0.72208E+00   -0.72080E+00  2202   0.242E+01
DAV:   5    -0.129287686569E+02   -0.19249E-01   -0.19245E-01  2728   0.379E+00    0.362E+00
DAV:   6    -0.124148125457E+02    0.51396E+00   -0.10528E+00  2493   0.133E+01    0.170E+00
DAV:   7    -0.123565070551E+02    0.58305E-01   -0.28572E-01  2374   0.428E+00    0.659E-01
DAV:   8    -0.123529835189E+02    0.35235E-02   -0.23337E-02  2220   0.178E+00    0.164E-01
DAV:   9    -0.123529881635E+02   -0.46447E-05   -0.20710E-03  2691   0.572E-01    0.444E-02
DAV:  10    -0.123530295657E+02   -0.41402E-04   -0.30934E-04  2129   0.138E-01    0.135E-02
DAV:  11    -0.123530413483E+02   -0.11783E-04   -0.44015E-05  2267   0.519E-02    0.373E-03
DAV:  12    -0.123530421586E+02   -0.81024E-06   -0.46125E-06  2296   0.183E-02    0.226E-03
DAV:  13    -0.123530422071E+02   -0.48535E-07   -0.26287E-06  2521   0.194E-02    0.111E-03
DAV:  14    -0.123530422032E+02    0.38895E-08   -0.24196E-07  2224   0.483E-03    0.432E-04
DAV:  15    -0.123530421716E+02    0.31635E-07   -0.79870E-08  2099   0.264E-03    0.177E-04
DAV:  16    -0.123530421728E+02   -0.11919E-08   -0.62635E-09  1607   0.593E-04
   1 F= -.12800302E+02 E0= -.12800302E+02  d E =-.128003E+02
       N       E                     dE             d eps       ncg     rms          rms(c)
DAV:   1    -0.125568907196E+02   -0.20385E+00   -0.25767E+01  1704   0.243E+01    0.903E-01
DAV:   2    -0.126849591326E+02   -0.12807E+00   -0.14867E+00  2270   0.726E+00    0.465E-01
DAV:   3    -0.126800676435E+02    0.48915E-02   -0.21855E-02  2133   0.114E+00    0.298E-01
DAV:   4    -0.126777553428E+02    0.23123E-02   -0.12235E-02  2172   0.638E-01    0.813E-02
DAV:   5    -0.126777902336E+02   -0.34891E-04   -0.19147E-03  1965   0.314E-01    0.308E-02
DAV:   6    -0.126777902556E+02   -0.22050E-07   -0.70281E-05  2395   0.666E-02    0.166E-02
DAV:   7    -0.126777834790E+02    0.67767E-05   -0.42401E-05  1955   0.459E-02    0.289E-03
DAV:   8    -0.126777839325E+02   -0.45353E-06   -0.52820E-06  2279   0.171E-02    0.255E-03
DAV:   9    -0.126777839056E+02    0.26912E-07   -0.47851E-07  2160   0.462E-03    0.101E-03
DAV:  10    -0.126777839957E+02   -0.90125E-07   -0.25040E-07  2237   0.314E-03    0.144E-04
DAV:  11    -0.126777840069E+02   -0.11221E-07   -0.10673E-08  1343   0.734E-04    0.214E-04
DAV:  12    -0.126777839956E+02    0.11360E-07   -0.23254E-09  1142   0.442E-04    0.867E-05
DAV:  13    -0.126777839861E+02    0.95024E-08   -0.21982E-09  1037   0.285E-04
   2 F= -.13134512E+02 E0= -.13134512E+02  d E =-.334210E+00
       N       E                     dE             d eps       ncg     rms          rms(c)
DAV:   1    -0.126895855484E+02   -0.11802E-01   -0.11921E+01  1703   0.162E+01    0.616E-01
DAV:   2    -0.127452516123E+02   -0.55666E-01   -0.65555E-01  2258   0.478E+00    0.294E-01
DAV:   3    -0.127431647368E+02    0.20869E-02   -0.91737E-03  2059   0.732E-01    0.185E-01
DAV:   4    -0.127423208409E+02    0.84390E-03   -0.46891E-03  2226   0.386E-01    0.513E-02
DAV:   5    -0.127423243853E+02   -0.35444E-05   -0.67132E-04  1959   0.180E-01    0.197E-02
DAV:   6    -0.127423235996E+02    0.78571E-06   -0.29004E-05  2411   0.398E-02    0.999E-03
DAV:   7    -0.127423215658E+02    0.20338E-05   -0.17595E-05  1965   0.296E-02    0.204E-03
DAV:   8    -0.127423216503E+02   -0.84543E-07   -0.18271E-06  2246   0.100E-02    0.175E-03
DAV:   9    -0.127423216278E+02    0.22522E-07   -0.24493E-07  2068   0.311E-03    0.661E-04
DAV:  10    -0.127423216946E+02   -0.66845E-07   -0.14869E-07  2204   0.235E-03    0.159E-04
DAV:  11    -0.127423216968E+02   -0.21787E-08   -0.40269E-09  1131   0.499E-04
   3 F= -.13203199E+02 E0= -.13203199E+02  d E =-.402898E+00
       N       E                     dE             d eps       ncg     rms          rms(c)
DAV:   1    -0.127422299836E+02    0.91711E-04   -0.31322E-02  1706   0.814E-01    0.310E-02
DAV:   2    -0.127423629220E+02   -0.13294E-03   -0.15843E-03  2243   0.235E-01    0.139E-02
DAV:   3    -0.127423577642E+02    0.51578E-05   -0.20037E-05  2099   0.343E-02    0.864E-03
DAV:   4    -0.127423555059E+02    0.22583E-05   -0.11079E-05  2194   0.186E-02    0.221E-03
DAV:   5    -0.127423553930E+02    0.11289E-06   -0.16415E-06  1952   0.847E-03    0.103E-03
DAV:   6    -0.127423552690E+02    0.12402E-06   -0.71941E-08  2480   0.193E-03    0.479E-04
DAV:   7    -0.127423552505E+02    0.18451E-07   -0.37865E-08  1730   0.131E-03    0.102E-04
DAV:   8    -0.127423552476E+02    0.29459E-08   -0.37310E-09  1082   0.485E-04
   4 F= -.13203369E+02 E0= -.13203369E+02  d E =-.403067E+00
