 vasp.5.4.1 24Jun15 (build Nov 12 2015 13:14:48) complex                        
  
 executed on             IFC_2016 date 2016.10.28  15:26:04
 running on   32 total cores
 distrk:  each k-point on    8 cores,    4 groups
 distr:  one band on NCORES_PER_BAND=   8 cores,    1 groups


--------------------------------------------------------------------------------------------------------


 INCAR:
 POTCAR:   PAW_PBE Sn_d 06Sep2000                 
 POTCAR:    PAW_PBE S 17Jan2003                   

 ----------------------------------------------------------------------------- 
|                                                                             |
|           W    W    AA    RRRRR   N    N  II  N    N   GGGG   !!!           |
|           W    W   A  A   R    R  NN   N  II  NN   N  G    G  !!!           |
|           W    W  A    A  R    R  N N  N  II  N N  N  G       !!!           |
|           W WW W  AAAAAA  RRRRR   N  N N  II  N  N N  G  GGG   !            |
|           WW  WW  A    A  R   R   N   NN  II  N   NN  G    G                |
|           W    W  A    A  R    R  N    N  II  N    N   GGGG   !!!           |
|                                                                             |
|      You have enabled k-point parallelism (KPAR>1).                         |
|      This developmental code was originally  written by Paul Kent at ORNL,  |
|      and carefully double checked in Vienna.                                |
|      GW as well as linear response parallelism added by Martijn Marsman     |
|      and Georg Kresse.                                                      |
|      Carefully verify results versus KPAR=1.                                |
|      Report problems to Paul Kent and Vienna.                               |
|                                                                             |
 ----------------------------------------------------------------------------- 

 POTCAR:   PAW_PBE Sn_d 06Sep2000                 
   VRHFIN =Sn: s2p2                                                             
   LEXCH  = PE                                                                  
   EATOM  =  1893.0782 eV,  139.1373 Ry                                         
                                                                                
   TITEL  = PAW_PBE Sn_d 06Sep2000                                              
   LULTRA =        F    use ultrasoft PP ?                                      
   IUNSCR =        1    unscreen: 0-lin 1-nonlin 2-no                           
   RPACOR =    2.300    partial core radius                                     
   POMASS =  118.710; ZVAL   =   14.000    mass and valenz                      
   RCORE  =    2.500    outmost cutoff radius                                   
   RWIGS  =    2.960; RWIGS  =    1.566    wigner-seitz radius (au A)           
   ENMAX  =  241.090; ENMIN  =  180.817 eV                                      
   ICORE  =        3    local potential                                         
   LCOR   =        T    correct aug charges                                     
   LPAW   =        T    paw PP                                                  
   EAUG   =  439.825                                                            
   DEXC   =    -.001                                                            
   RMAX   =    2.969    core radius for proj-oper                               
   RAUG   =    1.300    factor for augmentation sphere                          
   RDEP   =    2.659    radius for radial grids                                 
   QCUT   =   -4.209; QGAM   =    8.419    optimization parameters              
                                                                                
   Description                                                                  
     l     E      TYP  RCUT    TYP  RCUT                                        
     2   .000     23  2.500                                                     
     2  -.400     23  2.500                                                     
     0   .000     23  2.500                                                     
     0  1.000     23  2.500                                                     
     1   .000     23  2.500                                                     
     1   .000     23  2.500                                                     
     3  -.100      7  2.500                                                     
  local pseudopotential read in
  partial core-charges read in
  atomic valenz-charges read in
  non local Contribution for L=           2  read in
    real space projection operators read in
  non local Contribution for L=           2  read in
    real space projection operators read in
  non local Contribution for L=           0  read in
    real space projection operators read in
  non local Contribution for L=           0  read in
    real space projection operators read in
  non local Contribution for L=           1  read in
    real space projection operators read in
  non local Contribution for L=           1  read in
    real space projection operators read in
    PAW grid and wavefunctions read in
 
   number of l-projection  operators is LMAX  =           6
   number of lm-projection operators is LMMAX =          18
 
 POTCAR:    PAW_PBE S 17Jan2003                   
   VRHFIN =S : s2p4                                                             
   LEXCH  = PE                                                                  
   EATOM  =   276.8230 eV,   20.3459 Ry                                         
                                                                                
   TITEL  = PAW_PBE S 17Jan2003                                                 
   LULTRA =        F    use ultrasoft PP ?                                      
   IUNSCR =        1    unscreen: 0-lin 1-nonlin 2-no                           
   RPACOR =    1.500    partial core radius                                     
   POMASS =   32.066; ZVAL   =    6.000    mass and valenz                      
   RCORE  =    1.900    outmost cutoff radius                                   
   RWIGS  =    2.200; RWIGS  =    1.164    wigner-seitz radius (au A)           
   ENMAX  =  280.000; ENMIN  =  194.016 eV                                      
   ICORE  =        2    local potential                                         
   LCOR   =        T    correct aug charges                                     
   LPAW   =        T    paw PP                                                  
   EAUG   =  335.092                                                            
   DEXC   =     .000                                                            
   RMAX   =    2.867    core radius for proj-oper                               
   RAUG   =    1.300    factor for augmentation sphere                          
   RDEP   =    1.954    radius for radial grids                                 
   QCUT   =   -4.360; QGAM   =    8.721    optimization parameters              
                                                                                
   Description                                                                  
     l     E      TYP  RCUT    TYP  RCUT                                        
     0   .000     23  1.900                                                     
     0   .000     23  1.900                                                     
     1   .000     23  1.900                                                     
     1   .000     23  1.900                                                     
     2   .000     23  1.900                                                     
  local pseudopotential read in
  partial core-charges read in
  atomic valenz-charges read in
  non local Contribution for L=           0  read in
    real space projection operators read in
  non local Contribution for L=           0  read in
    real space projection operators read in
  non local Contribution for L=           1  read in
    real space projection operators read in
  non local Contribution for L=           1  read in
    real space projection operators read in
    PAW grid and wavefunctions read in
 
   number of l-projection  operators is LMAX  =           4
   number of lm-projection operators is LMMAX =           8
 

 ----------------------------------------------------------------------------- 
|                                                                             |
|  ADVICE TO THIS USER RUNNING 'VASP/VAMP'   (HEAR YOUR MASTER'S VOICE ...):  |
|                                                                             |
|      You enforced a specific xc-type in the INCAR file,                     |
|      a different type was found on the POTCAR file                          |
|          I HOPE YOU KNOW, WHAT YOU ARE  DOING                               |
|                                                                             |
 ----------------------------------------------------------------------------- 

 PAW_PBE Sn_d 06Sep2000                 :
 energy of atom  1       EATOM=-1893.0782
 kinetic energy error for atom=    0.0016 (will be added to EATOM!!)
  PAW_PBE S 17Jan2003                   :
 energy of atom  2       EATOM= -276.8230
 kinetic energy error for atom=    0.0012 (will be added to EATOM!!)
 
 
 POSCAR: SnS2                                    
  positions in direct lattice
  velocities in cartesian coordinates
  No initial velocities read in
 exchange correlation table for  LEXCH =       14
   RHO(1)=    0.500       N(1)  =     2000
   RHO(2)=  100.500       N(2)  =     4000
 


--------------------------------------------------------------------------------------------------------


 ion  position               nearest neighbor table
   1  0.000  0.000  0.000-   3 2.47   2 2.47   3 2.47   3 2.47   2 2.47   2 2.47
   2  0.333  0.667  0.215-   1 2.47   1 2.47   1 2.47
   3  0.667  0.333  0.785-   1 2.47   1 2.47   1 2.47
 
  LATTYP: Found a hexagonal cell.
 ALAT       =     3.6510002172
 C/A-ratio  =     1.6474937393
  
  Lattice vectors:
  
 A1 = (   3.6510000000,   0.0000000000,   0.0000000000)
 A2 = (  -1.8255000000,   3.1618590000,   0.0000000000)
 A3 = (   0.0000000000,   0.0000000000,   6.0150000000)


Analysis of symmetry for initial positions (statically):
=====================================================================
 Subroutine PRICEL returns:
 Original cell was already a primitive cell.
 

 Routine SETGRP: Setting up the symmetry group for a 
 hexagonal supercell.


 Subroutine GETGRP returns: Found 12 space group operations
 (whereof 12 operations were pure point group operations)
 out of a pool of 24 trial point group operations.


The static configuration has the point symmetry D_3d.


Analysis of symmetry for dynamics (positions and initial velocities):
=====================================================================
 Subroutine PRICEL returns:
 Original cell was already a primitive cell.
 

 Routine SETGRP: Setting up the symmetry group for a 
 hexagonal supercell.


 Subroutine GETGRP returns: Found 12 space group operations
 (whereof 12 operations were pure point group operations)
 out of a pool of 24 trial point group operations.


The dynamic configuration has the point symmetry D_3d.


 Subroutine INISYM returns: Found 12 space group operations
 (whereof 12 operations are pure point group operations),
 and found     1 'primitive' translations

 
 
 KPOINTS: Automatic 8x8x6                         

Automatic generation of k-mesh.
Space group operators:
 irot       det(A)        alpha          n_x          n_y          n_z        tau_x        tau_y        tau_z
    1     1.000000     0.000000     1.000000     0.000000     0.000000     0.000000     0.000000     0.000000
    2    -1.000000     0.000000     1.000000     0.000000     0.000000     0.000000     0.000000     0.000000
    3     1.000000   120.000000     0.000000     0.000000    -1.000000     0.000000     0.000000     0.000000
    4    -1.000000   120.000000     0.000000     0.000000    -1.000000     0.000000     0.000000     0.000000
    5     1.000000   120.000000     0.000000     0.000000     1.000000     0.000000     0.000000     0.000000
    6    -1.000000   120.000000     0.000000     0.000000     1.000000     0.000000     0.000000     0.000000
    7     1.000000   180.000000     1.000000     0.000000     0.000000     0.000000     0.000000     0.000000
    8    -1.000000   180.000000     1.000000     0.000000     0.000000     0.000000     0.000000     0.000000
    9     1.000000   180.000000     0.500000    -0.866025     0.000000     0.000000     0.000000     0.000000
   10    -1.000000   180.000000     0.500000    -0.866025     0.000000     0.000000     0.000000     0.000000
   11     1.000000   180.000000    -0.500000    -0.866025     0.000000     0.000000     0.000000     0.000000
   12    -1.000000   180.000000    -0.500000    -0.866025     0.000000     0.000000     0.000000     0.000000
 
 Subroutine IBZKPT returns following result:
 ===========================================
 
 Found     50 irreducible k-points:
 
 Following reciprocal coordinates:
            Coordinates               Weight
  0.000000  0.000000  0.000000      1.000000
  0.125000 -0.000000  0.000000      6.000000
  0.250000 -0.000000  0.000000      6.000000
  0.375000  0.000000  0.000000      6.000000
  0.500000 -0.000000  0.000000      3.000000
  0.125000  0.125000  0.000000      6.000000
  0.250000  0.125000  0.000000     12.000000
  0.375000  0.125000  0.000000     12.000000
  0.250000  0.250000  0.000000      6.000000
  0.375000  0.250000  0.000000      6.000000
  0.000000  0.000000  0.166667      2.000000
  0.125000 -0.000000  0.166667      6.000000
  0.250000 -0.000000  0.166667      6.000000
  0.375000  0.000000  0.166667      6.000000
  0.500000 -0.000000  0.166667      6.000000
 -0.375000  0.000000  0.166667      6.000000
 -0.250000  0.000000  0.166667      6.000000
 -0.125000  0.000000  0.166667      6.000000
  0.125000  0.125000  0.166667     12.000000
  0.250000  0.125000  0.166667     12.000000
  0.375000  0.125000  0.166667     12.000000
  0.500000  0.125000  0.166667     12.000000
 -0.375000  0.125000  0.166667     12.000000
  0.250000  0.250000  0.166667     12.000000
  0.375000  0.250000  0.166667     12.000000
  0.000000  0.000000  0.333333      2.000000
  0.125000 -0.000000  0.333333      6.000000
  0.250000 -0.000000  0.333333      6.000000
  0.375000  0.000000  0.333333      6.000000
  0.500000 -0.000000  0.333333      6.000000
 -0.375000  0.000000  0.333333      6.000000
 -0.250000  0.000000  0.333333      6.000000
 -0.125000  0.000000  0.333333      6.000000
  0.125000  0.125000  0.333333     12.000000
  0.250000  0.125000  0.333333     12.000000
  0.375000  0.125000  0.333333     12.000000
  0.500000  0.125000  0.333333     12.000000
 -0.375000  0.125000  0.333333     12.000000
  0.250000  0.250000  0.333333     12.000000
  0.375000  0.250000  0.333333     12.000000
  0.000000  0.000000  0.500000      1.000000
  0.125000 -0.000000  0.500000      6.000000
  0.250000 -0.000000  0.500000      6.000000
  0.375000  0.000000  0.500000      6.000000
  0.500000 -0.000000  0.500000      3.000000
  0.125000  0.125000  0.500000      6.000000
  0.250000  0.125000  0.500000     12.000000
  0.375000  0.125000  0.500000     12.000000
  0.250000  0.250000  0.500000      6.000000
  0.375000  0.250000  0.500000      6.000000
 
 Following cartesian coordinates:
            Coordinates               Weight
  0.000000  0.000000  0.000000      1.000000
  0.034237  0.019767  0.000000      6.000000
  0.068474  0.039534  0.000000      6.000000
  0.102712  0.059301  0.000000      6.000000
  0.136949  0.079067  0.000000      3.000000
  0.034237  0.059301  0.000000      6.000000
  0.068474  0.079067  0.000000     12.000000
  0.102712  0.098834  0.000000     12.000000
  0.068474  0.118601  0.000000      6.000000
  0.102712  0.138368  0.000000      6.000000
  0.000000  0.000000  0.027709      2.000000
  0.034237  0.019767  0.027709      6.000000
  0.068474  0.039534  0.027709      6.000000
  0.102712  0.059301  0.027709      6.000000
  0.136949  0.079067  0.027709      6.000000
 -0.102712 -0.059301  0.027709      6.000000
 -0.068474 -0.039534  0.027709      6.000000
 -0.034237 -0.019767  0.027709      6.000000
  0.034237  0.059301  0.027709     12.000000
  0.068474  0.079067  0.027709     12.000000
  0.102712  0.098834  0.027709     12.000000
  0.136949  0.118601  0.027709     12.000000
 -0.102712 -0.019767  0.027709     12.000000
  0.068474  0.118601  0.027709     12.000000
  0.102712  0.138368  0.027709     12.000000
  0.000000  0.000000  0.055417      2.000000
  0.034237  0.019767  0.055417      6.000000
  0.068474  0.039534  0.055417      6.000000
  0.102712  0.059301  0.055417      6.000000
  0.136949  0.079067  0.055417      6.000000
 -0.102712 -0.059301  0.055417      6.000000
 -0.068474 -0.039534  0.055417      6.000000
 -0.034237 -0.019767  0.055417      6.000000
  0.034237  0.059301  0.055417     12.000000
  0.068474  0.079067  0.055417     12.000000
  0.102712  0.098834  0.055417     12.000000
  0.136949  0.118601  0.055417     12.000000
 -0.102712 -0.019767  0.055417     12.000000
  0.068474  0.118601  0.055417     12.000000
  0.102712  0.138368  0.055417     12.000000
  0.000000  0.000000  0.083126      1.000000
  0.034237  0.019767  0.083126      6.000000
  0.068474  0.039534  0.083126      6.000000
  0.102712  0.059301  0.083126      6.000000
  0.136949  0.079067  0.083126      3.000000
  0.034237  0.059301  0.083126      6.000000
  0.068474  0.079067  0.083126     12.000000
  0.102712  0.098834  0.083126     12.000000
  0.068474  0.118601  0.083126      6.000000
  0.102712  0.138368  0.083126      6.000000
 


--------------------------------------------------------------------------------------------------------




 Dimension of arrays:
   k-points           NKPTS =     50   k-points in BZ     NKDIM =     50   number of bands    NBANDS=     17
   number of dos      NEDOS =    301   number of ions     NIONS =      3
   non local maximal  LDIM  =      6   non local SUM 2l+1 LMDIM =     18
   total plane-waves  NPLWV =  37632
   max r-space proj   IRMAX =      1   max aug-charges    IRDMAX=  24399
   dimension x,y,z NGX =    28 NGY =   28 NGZ =   48
   dimension x,y,z NGXF=    56 NGYF=   56 NGZF=   96
   support grid    NGXF=    56 NGYF=   56 NGZF=   96
   ions per type =               1   2
 NGX,Y,Z   is equivalent  to a cutoff of  12.75, 12.75, 13.27 a.u.
 NGXF,Y,Z  is equivalent  to a cutoff of  25.50, 25.50, 26.53 a.u.


 I would recommend the setting:
   dimension x,y,z NGX =    28 NGY =   28 NGZ =   46
 SYSTEM =  SnS2                                    
 POSCAR =  SnS2                                    

 Startparameter for this run:
   NWRITE =      2    write-flag & timer
   PREC   = accura    normal or accurate (medium, high low for compatibility)
   ISTART =      0    job   : 0-new  1-cont  2-samecut
   ICHARG =      2    charge: 1-file 2-atom 10-const
   ISPIN  =      1    spin polarized calculation?
   LNONCOLLINEAR =      F non collinear calculations
   LSORBIT =      F    spin-orbit coupling
   INIWAV =      1    electr: 0-lowe 1-rand  2-diag
   LASPH  =      T    aspherical Exc in radial PAW
   METAGGA=      F    non-selfconsistent MetaGGA calc.

 Electronic Relaxation 1
   ENCUT  =  550.0 eV  40.42 Ry    6.36 a.u.   6.98  6.98 11.50*2*pi/ulx,y,z
   ENINI  =  550.0     initial cutoff
   ENAUG  =  439.8 eV  augmentation charge cutoff
   NELM   =     60;   NELMIN=  5; NELMDL=  0     # of ELM steps 
   EDIFF  = 0.1E-07   stopping-criterion for ELM
   LREAL  =      F    real-space projection
   NLSPLINE    = F    spline interpolate recip. space projectors
   LCOMPAT=      F    compatible to vasp.4.4
   GGA_COMPAT  = T    GGA compatible to vasp.4.4-vasp.4.6
   LMAXPAW     = -100 max onsite density
   LMAXMIX     =    2 max onsite mixed and CHGCAR
   VOSKOWN=      0    Vosko Wilk Nusair interpolation
   ROPT   =    0.00000   0.00000
 Ionic relaxation
   EDIFFG = -.1E-01   stopping-criterion for IOM
   NSW    =    500    number of steps for IOM
   NBLOCK =      1;   KBLOCK =    500    inner block; outer block 
   IBRION =      2    ionic relax: 0-MD 1-quasi-New 2-CG
   NFREE  =      1    steps in history (QN), initial steepest desc. (CG)
   ISIF   =      2    stress and relaxation
   IWAVPR =     11    prediction:  0-non 1-charg 2-wave 3-comb
   ISYM   =      2    0-nonsym 1-usesym 2-fastsym
   LCORR  =      T    Harris-Foulkes like correction to forces

   POTIM  = 0.5000    time-step for ionic-motion
   TEIN   =    0.0    initial temperature
   TEBEG  =    0.0;   TEEND  =   0.0 temperature during run
   SMASS  =  -3.00    Nose mass-parameter (am)
   estimated Nose-frequenzy (Omega)   =  0.10E-29 period in steps =****** mass=  -0.305E-27a.u.
   SCALEE = 1.0000    scale energy and forces
   NPACO  =    256;   APACO  = 16.0  distance and # of slots for P.C.
   PSTRESS=    0.0 pullay stress

  Mass of Ions in am
   POMASS = 118.71 32.07
  Ionic Valenz
   ZVAL   =  14.00  6.00
  Atomic Wigner-Seitz radii
   RWIGS  =  -1.00 -1.00
  virtual crystal weights 
   VCA    =   1.00  1.00
   NELECT =      26.0000    total number of electrons
   NUPDOWN=      -1.0000    fix difference up-down

 DOS related values:
   EMIN   =  10.00;   EMAX   =-10.00  energy-range for DOS
   EFERMI =   0.00
   ISMEAR =     0;   SIGMA  =   0.01  broadening in eV -4-tet -1-fermi 0-gaus

 Electronic relaxation 2 (details)
   IALGO  =     38    algorithm
   LDIAG  =      T    sub-space diagonalisation (order eigenvalues)
   LSUBROT=      F    optimize rotation matrix (better conditioning)
   TURBO    =      0    0=normal 1=particle mesh
   IRESTART =      0    0=no restart 2=restart with 2 vectors
   NREBOOT  =      0    no. of reboots
   NMIN     =      0    reboot dimension
   EREF     =   0.00    reference energy to select bands
   IMIX   =      4    mixing-type and parameters
     AMIX     =   0.40;   BMIX     =  1.00
     AMIX_MAG =   1.60;   BMIX_MAG =  1.00
     AMIN     =   0.10
     WC   =   100.;   INIMIX=   1;  MIXPRE=   1;  MAXMIX= -45

 Intra band minimization:
   WEIMIN = 0.0010     energy-eigenvalue tresh-hold
   EBREAK =  0.15E-09  absolut break condition
   DEPER  =   0.30     relativ break condition  

   TIME   =   0.40     timestep for ELM

  volume/ion in A,a.u.               =      23.15       156.19
  Fermi-wavevector in a.u.,A,eV,Ry     =   1.179965  2.229811 18.943643  1.392318
  Thomas-Fermi vector in A             =   2.316267
 
 Write flags
   LWAVE  =      F    write WAVECAR
   LCHARG =      F    write CHGCAR
   LVTOT  =      F    write LOCPOT, total local potential
   LVHAR  =      F    write LOCPOT, Hartree potential only
   LELF   =      F    write electronic localiz. function (ELF)
   LORBIT =      0    0 simple, 1 ext, 2 COOP (PROOUT)


 Dipole corrections
   LMONO  =      F    monopole corrections only (constant potential shift)
   LDIPOL =      F    correct potential (dipole corrections)
   IDIPOL =      0    1-x, 2-y, 3-z, 4-all directions 
   EPSILON=  1.0000000 bulk dielectric constant

 Exchange correlation treatment:
   GGA     =    PS    GGA type
   LEXCH   =    14    internal setting for exchange type
   VOSKOWN=      0    Vosko Wilk Nusair interpolation
   LHFCALC =     F    Hartree Fock is set to
   LHFONE  =     F    Hartree Fock one center treatment
   AEXX    =    0.0000 exact exchange contribution

 Linear response parameters
   LEPSILON=     F    determine dielectric tensor
   LRPA    =     F    only Hartree local field effects (RPA)
   LNABLA  =     F    use nabla operator in PAW spheres
   LVEL    =     F    velocity operator in full k-point grid
   LINTERFAST=   F  fast interpolation
   KINTER  =     0    interpolate to denser k-point grid
   CSHIFT  =0.1000    complex shift for real part using Kramers Kronig
   OMEGAMAX=  -1.0    maximum frequency
   DEG_THRESHOLD= 0.2000000E-02 threshold for treating states as degnerate
   RTIME   =    0.100 relaxation time in fs

 Orbital magnetization related:
   ORBITALMAG=     F  switch on orbital magnetization
   LCHIMAG   =     F  perturbation theory with respect to B field
   DQ        =  0.001000  dq finite difference perturbation B field



--------------------------------------------------------------------------------------------------------


 conjugate gradient relaxation of ions
 charge density and potential will be updated during run
 non-spin polarized calculation
 Variant of blocked Davidson
 Davidson routine will perform the subspace rotation
 perform sub-space diagonalisation
    after iterative eigenvector-optimisation
 modified Broyden-mixing scheme, WC =      100.0
 initial mixing is a Kerker type mixing with AMIX =  0.4000 and BMIX =      1.0000
 Hartree-type preconditioning will be used
 using additional bands            4
 reciprocal scheme for non local part
 use partial core corrections
 calculate Harris-corrections to forces 
   (improved forces if not selfconsistent)
 use gradient corrections 
 use of overlap-Matrix (Vanderbilt PP)
 Gauss-broadening in eV      SIGMA  =   0.01


--------------------------------------------------------------------------------------------------------


  energy-cutoff  :      550.00
  volume of cell :       69.44
      direct lattice vectors                 reciprocal lattice vectors
     3.651000000  0.000000000  0.000000000     0.273897562  0.158134819  0.000000000
    -1.825500000  3.161859000  0.000000000     0.000000000  0.316269638  0.000000000
     0.000000000  0.000000000  6.015000000     0.000000000  0.000000000  0.166251039

  length of vectors
     3.651000000  3.651000217  6.015000000     0.316269656  0.316269638  0.166251039


 
 k-points in units of 2pi/SCALE and weight: Automatic 8x8x6                         
   0.00000000  0.00000000  0.00000000       0.003
   0.03423720  0.01976685  0.00000000       0.016
   0.06847439  0.03953370  0.00000000       0.016
   0.10271159  0.05930056  0.00000000       0.016
   0.13694878  0.07906741  0.00000000       0.008
   0.03423720  0.05930056  0.00000000       0.016
   0.06847439  0.07906741  0.00000000       0.031
   0.10271159  0.09883426  0.00000000       0.031
   0.06847439  0.11860111  0.00000000       0.016
   0.10271159  0.13836797  0.00000000       0.016
   0.00000000  0.00000000  0.02770851       0.005
   0.03423720  0.01976685  0.02770851       0.016
   0.06847439  0.03953370  0.02770851       0.016
   0.10271159  0.05930056  0.02770851       0.016
   0.13694878  0.07906741  0.02770851       0.016
  -0.10271159 -0.05930056  0.02770851       0.016
  -0.06847439 -0.03953370  0.02770851       0.016
  -0.03423720 -0.01976685  0.02770851       0.016
   0.03423720  0.05930056  0.02770851       0.031
   0.06847439  0.07906741  0.02770851       0.031
   0.10271159  0.09883426  0.02770851       0.031
   0.13694878  0.11860111  0.02770851       0.031
  -0.10271159 -0.01976685  0.02770851       0.031
   0.06847439  0.11860111  0.02770851       0.031
   0.10271159  0.13836797  0.02770851       0.031
   0.00000000  0.00000000  0.05541701       0.005
   0.03423720  0.01976685  0.05541701       0.016
   0.06847439  0.03953370  0.05541701       0.016
   0.10271159  0.05930056  0.05541701       0.016
   0.13694878  0.07906741  0.05541701       0.016
  -0.10271159 -0.05930056  0.05541701       0.016
  -0.06847439 -0.03953370  0.05541701       0.016
  -0.03423720 -0.01976685  0.05541701       0.016
   0.03423720  0.05930056  0.05541701       0.031
   0.06847439  0.07906741  0.05541701       0.031
   0.10271159  0.09883426  0.05541701       0.031
   0.13694878  0.11860111  0.05541701       0.031
  -0.10271159 -0.01976685  0.05541701       0.031
   0.06847439  0.11860111  0.05541701       0.031
   0.10271159  0.13836797  0.05541701       0.031
   0.00000000  0.00000000  0.08312552       0.003
   0.03423720  0.01976685  0.08312552       0.016
   0.06847439  0.03953370  0.08312552       0.016
   0.10271159  0.05930056  0.08312552       0.016
   0.13694878  0.07906741  0.08312552       0.008
   0.03423720  0.05930056  0.08312552       0.016
   0.06847439  0.07906741  0.08312552       0.031
   0.10271159  0.09883426  0.08312552       0.031
   0.06847439  0.11860111  0.08312552       0.016
   0.10271159  0.13836797  0.08312552       0.016
 
 k-points in reciprocal lattice and weights: Automatic 8x8x6                         
   0.00000000  0.00000000  0.00000000       0.003
   0.12500000 -0.00000000  0.00000000       0.016
   0.25000000 -0.00000000  0.00000000       0.016
   0.37500000  0.00000000  0.00000000       0.016
   0.50000000 -0.00000000  0.00000000       0.008
   0.12500000  0.12500000  0.00000000       0.016
   0.25000000  0.12500000  0.00000000       0.031
   0.37500000  0.12500000  0.00000000       0.031
   0.25000000  0.25000000  0.00000000       0.016
   0.37500000  0.25000000  0.00000000       0.016
   0.00000000  0.00000000  0.16666667       0.005
   0.12500000 -0.00000000  0.16666667       0.016
   0.25000000 -0.00000000  0.16666667       0.016
   0.37500000  0.00000000  0.16666667       0.016
   0.50000000 -0.00000000  0.16666667       0.016
  -0.37500000  0.00000000  0.16666667       0.016
  -0.25000000  0.00000000  0.16666667       0.016
  -0.12500000  0.00000000  0.16666667       0.016
   0.12500000  0.12500000  0.16666667       0.031
   0.25000000  0.12500000  0.16666667       0.031
   0.37500000  0.12500000  0.16666667       0.031
   0.50000000  0.12500000  0.16666667       0.031
  -0.37500000  0.12500000  0.16666667       0.031
   0.25000000  0.25000000  0.16666667       0.031
   0.37500000  0.25000000  0.16666667       0.031
   0.00000000  0.00000000  0.33333333       0.005
   0.12500000 -0.00000000  0.33333333       0.016
   0.25000000 -0.00000000  0.33333333       0.016
   0.37500000  0.00000000  0.33333333       0.016
   0.50000000 -0.00000000  0.33333333       0.016
  -0.37500000  0.00000000  0.33333333       0.016
  -0.25000000  0.00000000  0.33333333       0.016
  -0.12500000  0.00000000  0.33333333       0.016
   0.12500000  0.12500000  0.33333333       0.031
   0.25000000  0.12500000  0.33333333       0.031
   0.37500000  0.12500000  0.33333333       0.031
   0.50000000  0.12500000  0.33333333       0.031
  -0.37500000  0.12500000  0.33333333       0.031
   0.25000000  0.25000000  0.33333333       0.031
   0.37500000  0.25000000  0.33333333       0.031
   0.00000000  0.00000000  0.50000000       0.003
   0.12500000 -0.00000000  0.50000000       0.016
   0.25000000 -0.00000000  0.50000000       0.016
   0.37500000  0.00000000  0.50000000       0.016
   0.50000000 -0.00000000  0.50000000       0.008
   0.12500000  0.12500000  0.50000000       0.016
   0.25000000  0.12500000  0.50000000       0.031
   0.37500000  0.12500000  0.50000000       0.031
   0.25000000  0.25000000  0.50000000       0.016
   0.37500000  0.25000000  0.50000000       0.016
 
 position of ions in fractional coordinates (direct lattice) 
   0.00000000  0.00000000  0.00000000
   0.33333300  0.66666600  0.21455980
   0.66666600  0.33333300  0.78544090
 
 position of ions in cartesian coordinates  (Angst):
   0.00000000  0.00000000  0.00000000
   0.00000000  2.10790389  1.29057720
   1.82549817  1.05395195  4.72442701
 


--------------------------------------------------------------------------------------------------------


 k-point  1 :   0.0000 0.0000 0.0000  plane waves:    1997
 k-point  2 :   0.1250-0.0000 0.0000  plane waves:    2020
 k-point  3 :   0.2500-0.0000 0.0000  plane waves:    2036
 k-point  4 :   0.3750 0.0000 0.0000  plane waves:    2030
 k-point  5 :   0.5000-0.0000 0.0000  plane waves:    2022
 k-point  6 :   0.1250 0.1250 0.0000  plane waves:    2035
 k-point  7 :   0.2500 0.1250 0.0000  plane waves:    2047
 k-point  8 :   0.3750 0.1250 0.0000  plane waves:    2038
 k-point  9 :   0.2500 0.2500 0.0000  plane waves:    2051
 k-point 10 :   0.3750 0.2500 0.0000  plane waves:    2039
 k-point 11 :   0.0000 0.0000 0.1667  plane waves:    2021
 k-point 12 :   0.1250-0.0000 0.1667  plane waves:    2018
 k-point 13 :   0.2500-0.0000 0.1667  plane waves:    2025
 k-point 14 :   0.3750 0.0000 0.1667  plane waves:    2038
 k-point 15 :   0.5000-0.0000 0.1667  plane waves:    2026
 k-point 16 :  -0.3750 0.0000 0.1667  plane waves:    2038
 k-point 17 :  -0.2500 0.0000 0.1667  plane waves:    2025
 k-point 18 :  -0.1250 0.0000 0.1667  plane waves:    2018
 k-point 19 :   0.1250 0.1250 0.1667  plane waves:    2035
 k-point 20 :   0.2500 0.1250 0.1667  plane waves:    2039
 k-point 21 :   0.3750 0.1250 0.1667  plane waves:    2039
 k-point 22 :   0.5000 0.1250 0.1667  plane waves:    2039
 k-point 23 :  -0.3750 0.1250 0.1667  plane waves:    2039
 k-point 24 :   0.2500 0.2500 0.1667  plane waves:    2041
 k-point 25 :   0.3750 0.2500 0.1667  plane waves:    2032
 k-point 26 :   0.0000 0.0000 0.3333  plane waves:    2009
 k-point 27 :   0.1250-0.0000 0.3333  plane waves:    2013
 k-point 28 :   0.2500-0.0000 0.3333  plane waves:    2033
 k-point 29 :   0.3750 0.0000 0.3333  plane waves:    2040
 k-point 30 :   0.5000-0.0000 0.3333  plane waves:    2038
 k-point 31 :  -0.3750 0.0000 0.3333  plane waves:    2040
 k-point 32 :  -0.2500 0.0000 0.3333  plane waves:    2033
 k-point 33 :  -0.1250 0.0000 0.3333  plane waves:    2013
 k-point 34 :   0.1250 0.1250 0.3333  plane waves:    2024
 k-point 35 :   0.2500 0.1250 0.3333  plane waves:    2037
 k-point 36 :   0.3750 0.1250 0.3333  plane waves:    2038
 k-point 37 :   0.5000 0.1250 0.3333  plane waves:    2038
 k-point 38 :  -0.3750 0.1250 0.3333  plane waves:    2037
 k-point 39 :   0.2500 0.2500 0.3333  plane waves:    2047
 k-point 40 :   0.3750 0.2500 0.3333  plane waves:    2040
 k-point 41 :   0.0000 0.0000 0.5000  plane waves:    1992
 k-point 42 :   0.1250-0.0000 0.5000  plane waves:    2004
 k-point 43 :   0.2500-0.0000 0.5000  plane waves:    2022
 k-point 44 :   0.3750 0.0000 0.5000  plane waves:    2040
 k-point 45 :   0.5000-0.0000 0.5000  plane waves:    2028
 k-point 46 :   0.1250 0.1250 0.5000  plane waves:    2024
 k-point 47 :   0.2500 0.1250 0.5000  plane waves:    2036
 k-point 48 :   0.3750 0.1250 0.5000  plane waves:    2044
 k-point 49 :   0.2500 0.2500 0.5000  plane waves:    2034
 k-point 50 :   0.3750 0.2500 0.5000  plane waves:    2036

 maximum and minimum number of plane-waves per node :       268      239

 maximum number of plane-waves:      2051
 maximum index in each direction: 
   IXMAX=    7   IYMAX=    6   IZMAX=   11
   IXMIN=   -7   IYMIN=   -7   IZMIN=  -12

 WARNING: aliasing errors must be expected set NGX to  30 to avoid them
 NGY is ok and might be reduce to  28
 NGZ is ok and might be reduce to  48
 aliasing errors are usually negligible using standard VASP settings
 and one can safely disregard these warnings

 parallel 3D FFT for wavefunctions:
    minimum data exchange during FFTs selected (reduces bandwidth)
 parallel 3D FFT for charge:
    minimum data exchange during FFTs selected (reduces bandwidth)


 total amount of memory used by VASP on root node    41349. kBytes
========================================================================

   base      :      30000. kBytes
   nonl-proj :       3756. kBytes
   fftplans  :       1443. kBytes
   grid      :       2355. kBytes
   one-center:         15. kBytes
   wavefun   :       3780. kBytes
 
     INWAV:  cpu time    0.0000: real time    0.0003
 Broyden mixing: mesh for mixing (old mesh)
   NGX = 13   NGY = 13   NGZ = 23
  (NGX  = 56   NGY  = 56   NGZ  = 96)
  gives a total of   3887 points

 initial charge density was supplied:
 charge density of overlapping atoms calculated
 number of electron      26.0000000 magnetization 
 keeping initial charge density in first step


--------------------------------------------------------------------------------------------------------


 Maximum index for augmentation-charges         2999 (set IRDMAX)


--------------------------------------------------------------------------------------------------------


 First call to EWALD:  gamma=   0.431
 Maximum number of real-space cells 3x 3x 2
 Maximum number of reciprocal cells 2x 2x 4

 FEWALD executed in parallel
    FEWALD:  cpu time    0.0040: real time    0.0019


----------------------------------------- Iteration    1(   1)  ---------------------------------------


    POTLOK:  cpu time    0.0440: real time    0.0457
    SETDIJ:  cpu time    0.2120: real time    0.2107
     EDDAV:  cpu time    0.3520: real time    0.3534
       DOS:  cpu time    0.0000: real time    0.0010
    --------------------------------------------
      LOOP:  cpu time    0.6120: real time    0.6136

 eigenvalue-minimisations  :  1709
 total energy-change (2. order) : 0.2142663E+03  (-0.1317266E+04)
 number of electron      26.0000000 magnetization 
 augmentation part       26.0000000 magnetization 

 Free energy of the ion-electron system (eV)
  ---------------------------------------------------
  alpha Z        PSCENC =        48.70772351
  Ewald energy   TEWEN  =     -1457.49719496
  -Hartree energ DENC   =      -926.98159378
  -exchange      EXHF   =         0.00000000
  -V(xc)+E(xc)   XCENC  =        83.58800600
  PAW double counting   =      1571.39088081    -1602.09454190
  entropy T*S    EENTRO =        -0.00014683
  eigenvalues    EBANDS =        50.76150524
  atomic energy  EATOM  =      2446.39170091
  Solvation  Ediel_sol  =         0.00000000
  ---------------------------------------------------
  free energy    TOTEN  =       214.26633900 eV

  energy without entropy =      214.26648584  energy(sigma->0) =      214.26641242


--------------------------------------------------------------------------------------------------------




----------------------------------------- Iteration    1(   2)  ---------------------------------------


     EDDAV:  cpu time    0.3640: real time    0.3626
       DOS:  cpu time    0.0000: real time    0.0006
    --------------------------------------------
      LOOP:  cpu time    0.3640: real time    0.3640

 eigenvalue-minimisations  :  1888
 total energy-change (2. order) :-0.2039620E+03  (-0.2002356E+03)
 number of electron      26.0000000 magnetization 
 augmentation part       26.0000000 magnetization 

 Free energy of the ion-electron system (eV)
  ---------------------------------------------------
  alpha Z        PSCENC =        48.70772351
  Ewald energy   TEWEN  =     -1457.49719496
  -Hartree energ DENC   =      -926.98159378
  -exchange      EXHF   =         0.00000000
  -V(xc)+E(xc)   XCENC  =        83.58800600
  PAW double counting   =      1571.39088081    -1602.09454190
  entropy T*S    EENTRO =        -0.00000002
  eigenvalues    EBANDS =      -153.20066175
  atomic energy  EATOM  =      2446.39170091
  Solvation  Ediel_sol  =         0.00000000
  ---------------------------------------------------
  free energy    TOTEN  =        10.30431882 eV

  energy without entropy =       10.30431885  energy(sigma->0) =       10.30431883


--------------------------------------------------------------------------------------------------------




----------------------------------------- Iteration    1(   3)  ---------------------------------------


     EDDAV:  cpu time    0.4200: real time    0.4190
       DOS:  cpu time    0.0000: real time    0.0002
    --------------------------------------------
      LOOP:  cpu time    0.4200: real time    0.4200

 eigenvalue-minimisations  :  2174
 total energy-change (2. order) :-0.2249176E+02  (-0.2188217E+02)
 number of electron      26.0000000 magnetization 
 augmentation part       26.0000000 magnetization 

 Free energy of the ion-electron system (eV)
  ---------------------------------------------------
  alpha Z        PSCENC =        48.70772351
  Ewald energy   TEWEN  =     -1457.49719496
  -Hartree energ DENC   =      -926.98159378
  -exchange      EXHF   =         0.00000000
  -V(xc)+E(xc)   XCENC  =        83.58800600
  PAW double counting   =      1571.39088081    -1602.09454190
  entropy T*S    EENTRO =        -0.00000000
  eigenvalues    EBANDS =      -175.69241748
  atomic energy  EATOM  =      2446.39170091
  Solvation  Ediel_sol  =         0.00000000
  ---------------------------------------------------
  free energy    TOTEN  =       -12.18743688 eV

  energy without entropy =      -12.18743688  energy(sigma->0) =      -12.18743688


--------------------------------------------------------------------------------------------------------




----------------------------------------- Iteration    1(   4)  ---------------------------------------


     EDDAV:  cpu time    0.3880: real time    0.3895
       DOS:  cpu time    0.0000: real time    0.0003
    --------------------------------------------
      LOOP:  cpu time    0.3880: real time    0.3904

 eigenvalue-minimisations  :  2202
 total energy-change (2. order) :-0.7220825E+00  (-0.7207962E+00)
 number of electron      26.0000000 magnetization 
 augmentation part       26.0000000 magnetization 

 Free energy of the ion-electron system (eV)
  ---------------------------------------------------
  alpha Z        PSCENC =        48.70772351
  Ewald energy   TEWEN  =     -1457.49719496
  -Hartree energ DENC   =      -926.98159378
  -exchange      EXHF   =         0.00000000
  -V(xc)+E(xc)   XCENC  =        83.58800600
  PAW double counting   =      1571.39088081    -1602.09454190
  entropy T*S    EENTRO =        -0.00000000
  eigenvalues    EBANDS =      -176.41449999
  atomic energy  EATOM  =      2446.39170091
  Solvation  Ediel_sol  =         0.00000000
  ---------------------------------------------------
  free energy    TOTEN  =       -12.90951939 eV

  energy without entropy =      -12.90951939  energy(sigma->0) =      -12.90951939


--------------------------------------------------------------------------------------------------------




----------------------------------------- Iteration    1(   5)  ---------------------------------------


     EDDAV:  cpu time    0.4720: real time    0.4708
       DOS:  cpu time    0.0000: real time    0.0003
    CHARGE:  cpu time    0.0360: real time    0.0362
    MIXING:  cpu time    0.0040: real time    0.0014
    --------------------------------------------
      LOOP:  cpu time    0.5120: real time    0.5094

 eigenvalue-minimisations  :  2728
 total energy-change (2. order) :-0.1924927E-01  (-0.1924511E-01)
 number of electron      26.0000009 magnetization 
 augmentation part        5.7689914 magnetization 

 Broyden mixing:
  rms(total) = 0.36176E+00    rms(broyden)= 0.36176E+00
  rms(prec ) = 0.71041E+00
  weight for this iteration     100.00

 Free energy of the ion-electron system (eV)
  ---------------------------------------------------
  alpha Z        PSCENC =        48.70772351
  Ewald energy   TEWEN  =     -1457.49719496
  -Hartree energ DENC   =      -926.98159378
  -exchange      EXHF   =         0.00000000
  -V(xc)+E(xc)   XCENC  =        83.58800600
  PAW double counting   =      1571.39088081    -1602.09454190
  entropy T*S    EENTRO =        -0.00000000
  eigenvalues    EBANDS =      -176.43374925
  atomic energy  EATOM  =      2446.39170091
  Solvation  Ediel_sol  =         0.00000000
  ---------------------------------------------------
  free energy    TOTEN  =       -12.92876866 eV

  energy without entropy =      -12.92876866  energy(sigma->0) =      -12.92876866


--------------------------------------------------------------------------------------------------------




----------------------------------------- Iteration    1(   6)  ---------------------------------------


    POTLOK:  cpu time    0.0400: real time    0.0422
    SETDIJ:  cpu time    0.1800: real time    0.2111
     EDDAV:  cpu time    0.4400: real time    0.4382
       DOS:  cpu time    0.0000: real time    0.0003
    CHARGE:  cpu time    0.0360: real time    0.0365
    MIXING:  cpu time    0.0040: real time    0.0014
    --------------------------------------------
      LOOP:  cpu time    0.7000: real time    0.7312

 eigenvalue-minimisations  :  2493
 total energy-change (2. order) : 0.5139561E+00  (-0.1052772E+00)
 number of electron      26.0000009 magnetization 
 augmentation part        5.8028694 magnetization 

 Broyden mixing:
  rms(total) = 0.16976E+00    rms(broyden)= 0.16976E+00
  rms(prec ) = 0.29174E+00
  weight for this iteration     100.00

 eigenvalues of (default mixing * dielectric matrix)
  average eigenvalue GAMMA=   1.5969
  1.5969

 Free energy of the ion-electron system (eV)
  ---------------------------------------------------
  alpha Z        PSCENC =        48.70772351
  Ewald energy   TEWEN  =     -1457.49719496
  -Hartree energ DENC   =      -923.59954888
  -exchange      EXHF   =         0.00000000
  -V(xc)+E(xc)   XCENC  =        83.80983768
  PAW double counting   =      1597.10920149    -1627.13551490
  entropy T*S    EENTRO =        -0.00000000
  eigenvalues    EBANDS =      -180.20101739
  atomic energy  EATOM  =      2446.39170091
  Solvation  Ediel_sol  =         0.00000000
  ---------------------------------------------------
  free energy    TOTEN  =       -12.41481255 eV

  energy without entropy =      -12.41481255  energy(sigma->0) =      -12.41481255


--------------------------------------------------------------------------------------------------------




----------------------------------------- Iteration    1(   7)  ---------------------------------------


    POTLOK:  cpu time    0.0400: real time    0.0418
    SETDIJ:  cpu time    0.2120: real time    0.2116
     EDDAV:  cpu time    0.4280: real time    0.4260
       DOS:  cpu time    0.0000: real time    0.0003
    CHARGE:  cpu time    0.0360: real time    0.0365
    MIXING:  cpu time    0.0000: real time    0.0014
    --------------------------------------------
      LOOP:  cpu time    0.7160: real time    0.7191

 eigenvalue-minimisations  :  2374
 total energy-change (2. order) : 0.5830549E-01  (-0.2857229E-01)
 number of electron      26.0000009 magnetization 
 augmentation part        5.8121944 magnetization 

 Broyden mixing:
  rms(total) = 0.65889E-01    rms(broyden)= 0.65889E-01
  rms(prec ) = 0.98589E-01
  weight for this iteration     100.00

 eigenvalues of (default mixing * dielectric matrix)
  average eigenvalue GAMMA=   1.8557
  1.4279  2.2836

 Free energy of the ion-electron system (eV)
  ---------------------------------------------------
  alpha Z        PSCENC =        48.70772351
  Ewald energy   TEWEN  =     -1457.49719496
  -Hartree energ DENC   =      -922.90404175
  -exchange      EXHF   =         0.00000000
  -V(xc)+E(xc)   XCENC  =        83.96339709
  PAW double counting   =      1630.96005281    -1661.83863606
  entropy T*S    EENTRO =        -0.00000000
  eigenvalues    EBANDS =      -180.13950861
  atomic energy  EATOM  =      2446.39170091
  Solvation  Ediel_sol  =         0.00000000
  ---------------------------------------------------
  free energy    TOTEN  =       -12.35650706 eV

  energy without entropy =      -12.35650706  energy(sigma->0) =      -12.35650706


--------------------------------------------------------------------------------------------------------




----------------------------------------- Iteration    1(   8)  ---------------------------------------


    POTLOK:  cpu time    0.0440: real time    0.0416
    SETDIJ:  cpu time    0.2120: real time    0.2113
     EDDAV:  cpu time    0.4240: real time    0.4240
       DOS:  cpu time    0.0000: real time    0.0003
    CHARGE:  cpu time    0.0360: real time    0.0362
    MIXING:  cpu time    0.0000: real time    0.0014
    --------------------------------------------
      LOOP:  cpu time    0.7160: real time    0.7163

 eigenvalue-minimisations  :  2220
 total energy-change (2. order) : 0.3523536E-02  (-0.2333721E-02)
 number of electron      26.0000009 magnetization 
 augmentation part        5.8059279 magnetization 

 Broyden mixing:
  rms(total) = 0.16355E-01    rms(broyden)= 0.16355E-01
  rms(prec ) = 0.27542E-01
  weight for this iteration     100.00

 eigenvalues of (default mixing * dielectric matrix)
  average eigenvalue GAMMA=   1.7226
  2.5634  1.3022  1.3022

 Free energy of the ion-electron system (eV)
  ---------------------------------------------------
  alpha Z        PSCENC =        48.70772351
  Ewald energy   TEWEN  =     -1457.49719496
  -Hartree energ DENC   =      -922.83326305
  -exchange      EXHF   =         0.00000000
  -V(xc)+E(xc)   XCENC  =        84.00623923
  PAW double counting   =      1651.43297177    -1683.40608073
  entropy T*S    EENTRO =        -0.00000000
  eigenvalues    EBANDS =      -179.15508020
  atomic energy  EATOM  =      2446.39170091
  Solvation  Ediel_sol  =         0.00000000
  ---------------------------------------------------
  free energy    TOTEN  =       -12.35298352 eV

  energy without entropy =      -12.35298352  energy(sigma->0) =      -12.35298352


--------------------------------------------------------------------------------------------------------




----------------------------------------- Iteration    1(   9)  ---------------------------------------


    POTLOK:  cpu time    0.0440: real time    0.0424
    SETDIJ:  cpu time    0.2080: real time    0.2105
     EDDAV:  cpu time    0.4760: real time    0.4749
       DOS:  cpu time    0.0000: real time    0.0004
    CHARGE:  cpu time    0.0360: real time    0.0363
    MIXING:  cpu time    0.0040: real time    0.0014
    --------------------------------------------
      LOOP:  cpu time    0.7680: real time    0.7675

 eigenvalue-minimisations  :  2691
 total energy-change (2. order) :-0.4644688E-05  (-0.2071044E-03)
 number of electron      26.0000009 magnetization 
 augmentation part        5.8057396 magnetization 

 Broyden mixing:
  rms(total) = 0.44445E-02    rms(broyden)= 0.44444E-02
  rms(prec ) = 0.66494E-02
  weight for this iteration     100.00

 eigenvalues of (default mixing * dielectric matrix)
  average eigenvalue GAMMA=   1.7117
  2.4607  1.1937  1.1937  1.9986

 Free energy of the ion-electron system (eV)
  ---------------------------------------------------
  alpha Z        PSCENC =        48.70772351
  Ewald energy   TEWEN  =     -1457.49719496
  -Hartree energ DENC   =      -922.42643379
  -exchange      EXHF   =         0.00000000
  -V(xc)+E(xc)   XCENC  =        84.02068368
  PAW double counting   =      1655.93699791    -1688.07876053
  entropy T*S    EENTRO =        -0.00000000
  eigenvalues    EBANDS =      -179.40770489
  atomic energy  EATOM  =      2446.39170091
  Solvation  Ediel_sol  =         0.00000000
  ---------------------------------------------------
  free energy    TOTEN  =       -12.35298816 eV

  energy without entropy =      -12.35298816  energy(sigma->0) =      -12.35298816


--------------------------------------------------------------------------------------------------------




----------------------------------------- Iteration    1(  10)  ---------------------------------------


    POTLOK:  cpu time    0.0400: real time    0.0423
    SETDIJ:  cpu time    0.2120: real time    0.2101
     EDDAV:  cpu time    0.3920: real time    0.3905
       DOS:  cpu time    0.0000: real time    0.0004
    CHARGE:  cpu time    0.0360: real time    0.0363
    MIXING:  cpu time    0.0000: real time    0.0016
    --------------------------------------------
      LOOP:  cpu time    0.6800: real time    0.6826

 eigenvalue-minimisations  :  2129
 total energy-change (2. order) :-0.4140214E-04  (-0.3093391E-04)
 number of electron      26.0000009 magnetization 
 augmentation part        5.8055794 magnetization 

 Broyden mixing:
  rms(total) = 0.13538E-02    rms(broyden)= 0.13538E-02
  rms(prec ) = 0.25399E-02
  weight for this iteration     100.00

 eigenvalues of (default mixing * dielectric matrix)
  average eigenvalue GAMMA=   1.7867
  2.7301  2.2341  1.1660  1.1660  1.6372

 Free energy of the ion-electron system (eV)
  ---------------------------------------------------
  alpha Z        PSCENC =        48.70772351
  Ewald energy   TEWEN  =     -1457.49719496
  -Hartree energ DENC   =      -922.42286021
  -exchange      EXHF   =         0.00000000
  -V(xc)+E(xc)   XCENC  =        84.01629101
  PAW double counting   =      1655.45332032    -1687.60021232
  entropy T*S    EENTRO =        -0.00000000
  eigenvalues    EBANDS =      -179.40179782
  atomic energy  EATOM  =      2446.39170091
  Solvation  Ediel_sol  =         0.00000000
  ---------------------------------------------------
  free energy    TOTEN  =       -12.35302957 eV

  energy without entropy =      -12.35302957  energy(sigma->0) =      -12.35302957


--------------------------------------------------------------------------------------------------------




----------------------------------------- Iteration    1(  11)  ---------------------------------------


    POTLOK:  cpu time    0.0440: real time    0.0423
    SETDIJ:  cpu time    0.2120: real time    0.2115
     EDDAV:  cpu time    0.4000: real time    0.4010
       DOS:  cpu time    0.0000: real time    0.0003
    CHARGE:  cpu time    0.0360: real time    0.0359
    MIXING:  cpu time    0.0000: real time    0.0016
    --------------------------------------------
      LOOP:  cpu time    0.6960: real time    0.6941

 eigenvalue-minimisations  :  2267
 total energy-change (2. order) :-0.1178266E-04  (-0.4401531E-05)
 number of electron      26.0000009 magnetization 
 augmentation part        5.8057688 magnetization 

 Broyden mixing:
  rms(total) = 0.37340E-03    rms(broyden)= 0.37339E-03
  rms(prec ) = 0.71842E-03
  weight for this iteration     100.00

 eigenvalues of (default mixing * dielectric matrix)
  average eigenvalue GAMMA=   1.6867
  2.7162  2.3299  1.7541  1.2062  1.2062  0.9078

 Free energy of the ion-electron system (eV)
  ---------------------------------------------------
  alpha Z        PSCENC =        48.70772351
  Ewald energy   TEWEN  =     -1457.49719496
  -Hartree energ DENC   =      -922.46184422
  -exchange      EXHF   =         0.00000000
  -V(xc)+E(xc)   XCENC  =        84.01789671
  PAW double counting   =      1655.37809571    -1687.52659736
  entropy T*S    EENTRO =        -0.00000000
  eigenvalues    EBANDS =      -179.36282166
  atomic energy  EATOM  =      2446.39170091
  Solvation  Ediel_sol  =         0.00000000
  ---------------------------------------------------
  free energy    TOTEN  =       -12.35304135 eV

  energy without entropy =      -12.35304135  energy(sigma->0) =      -12.35304135


--------------------------------------------------------------------------------------------------------




----------------------------------------- Iteration    1(  12)  ---------------------------------------


    POTLOK:  cpu time    0.0400: real time    0.0414
    SETDIJ:  cpu time    0.2120: real time    0.2117
     EDDAV:  cpu time    0.4200: real time    0.4222
       DOS:  cpu time    0.0040: real time    0.0003
    CHARGE:  cpu time    0.0360: real time    0.0364
    MIXING:  cpu time    0.0000: real time    0.0015
    --------------------------------------------
      LOOP:  cpu time    0.7120: real time    0.7150

 eigenvalue-minimisations  :  2296
 total energy-change (2. order) :-0.8102370E-06  (-0.4612465E-06)
 number of electron      26.0000009 magnetization 
 augmentation part        5.8057638 magnetization 

 Broyden mixing:
  rms(total) = 0.22635E-03    rms(broyden)= 0.22635E-03
  rms(prec ) = 0.44211E-03
  weight for this iteration     100.00

 eigenvalues of (default mixing * dielectric matrix)
  average eigenvalue GAMMA=   1.7562
  2.9476  2.5273  1.7499  1.7499  0.9670  1.1757  1.1757

 Free energy of the ion-electron system (eV)
  ---------------------------------------------------
  alpha Z        PSCENC =        48.70772351
  Ewald energy   TEWEN  =     -1457.49719496
  -Hartree energ DENC   =      -922.46256146
  -exchange      EXHF   =         0.00000000
  -V(xc)+E(xc)   XCENC  =        84.01832517
  PAW double counting   =      1655.27885332    -1687.42218933
  entropy T*S    EENTRO =        -0.00000000
  eigenvalues    EBANDS =      -179.36769932
  atomic energy  EATOM  =      2446.39170091
  Solvation  Ediel_sol  =         0.00000000
  ---------------------------------------------------
  free energy    TOTEN  =       -12.35304216 eV

  energy without entropy =      -12.35304216  energy(sigma->0) =      -12.35304216


--------------------------------------------------------------------------------------------------------




----------------------------------------- Iteration    1(  13)  ---------------------------------------


    POTLOK:  cpu time    0.0440: real time    0.0415
    SETDIJ:  cpu time    0.1960: real time    0.2114
     EDDAV:  cpu time    0.4400: real time    0.4397
       DOS:  cpu time    0.0000: real time    0.0004
    CHARGE:  cpu time    0.0360: real time    0.0361
    MIXING:  cpu time    0.0040: real time    0.0016
    --------------------------------------------
      LOOP:  cpu time    0.7200: real time    0.7322

 eigenvalue-minimisations  :  2521
 total energy-change (2. order) :-0.4853518E-07  (-0.2628683E-06)
 number of electron      26.0000009 magnetization 
 augmentation part        5.8057059 magnetization 

 Broyden mixing:
  rms(total) = 0.11143E-03    rms(broyden)= 0.11142E-03
  rms(prec ) = 0.21135E-03
  weight for this iteration     100.00

 eigenvalues of (default mixing * dielectric matrix)
  average eigenvalue GAMMA=   1.6516
  2.9250  2.4483  2.0937  1.5673  1.1758  1.1758  0.9622  0.8647

 Free energy of the ion-electron system (eV)
  ---------------------------------------------------
  alpha Z        PSCENC =        48.70772351
  Ewald energy   TEWEN  =     -1457.49719496
  -Hartree energ DENC   =      -922.46969837
  -exchange      EXHF   =         0.00000000
  -V(xc)+E(xc)   XCENC  =        84.01849385
  PAW double counting   =      1655.23402247    -1687.37806091
  entropy T*S    EENTRO =        -0.00000000
  eigenvalues    EBANDS =      -179.36002871
  atomic energy  EATOM  =      2446.39170091
  Solvation  Ediel_sol  =         0.00000000
  ---------------------------------------------------
  free energy    TOTEN  =       -12.35304221 eV

  energy without entropy =      -12.35304221  energy(sigma->0) =      -12.35304221


--------------------------------------------------------------------------------------------------------




----------------------------------------- Iteration    1(  14)  ---------------------------------------


    POTLOK:  cpu time    0.0400: real time    0.0423
    SETDIJ:  cpu time    0.2120: real time    0.2104
     EDDAV:  cpu time    0.4160: real time    0.4158
       DOS:  cpu time    0.0000: real time    0.0003
    CHARGE:  cpu time    0.0360: real time    0.0361
    MIXING:  cpu time    0.0000: real time    0.0017
    --------------------------------------------
      LOOP:  cpu time    0.7040: real time    0.7082

 eigenvalue-minimisations  :  2224
 total energy-change (2. order) : 0.3889454E-08  (-0.2419617E-07)
 number of electron      26.0000009 magnetization 
 augmentation part        5.8057217 magnetization 

 Broyden mixing:
  rms(total) = 0.43217E-04    rms(broyden)= 0.43217E-04
  rms(prec ) = 0.75361E-04
  weight for this iteration     100.00

 eigenvalues of (default mixing * dielectric matrix)
  average eigenvalue GAMMA=   1.7648
  3.2204  2.6500  2.3685  1.5680  1.3764  1.3764  0.9941  1.1646  1.1646

 Free energy of the ion-electron system (eV)
  ---------------------------------------------------
  alpha Z        PSCENC =        48.70772351
  Ewald energy   TEWEN  =     -1457.49719496
  -Hartree energ DENC   =      -922.47084033
  -exchange      EXHF   =         0.00000000
  -V(xc)+E(xc)   XCENC  =        84.01859593
  PAW double counting   =      1655.23435833    -1687.37762409
  entropy T*S    EENTRO =        -0.00000000
  eigenvalues    EBANDS =      -179.35976152
  atomic energy  EATOM  =      2446.39170091
  Solvation  Ediel_sol  =         0.00000000
  ---------------------------------------------------
  free energy    TOTEN  =       -12.35304220 eV

  energy without entropy =      -12.35304220  energy(sigma->0) =      -12.35304220


--------------------------------------------------------------------------------------------------------




----------------------------------------- Iteration    1(  15)  ---------------------------------------


    POTLOK:  cpu time    0.0440: real time    0.0422
    SETDIJ:  cpu time    0.2080: real time    0.2100
     EDDAV:  cpu time    0.3840: real time    0.3807
       DOS:  cpu time    0.0000: real time    0.0003
    CHARGE:  cpu time    0.0360: real time    0.0361
    MIXING:  cpu time    0.0000: real time    0.0017
    --------------------------------------------
      LOOP:  cpu time    0.6720: real time    0.6727

 eigenvalue-minimisations  :  2099
 total energy-change (2. order) : 0.3163541E-07  (-0.7986956E-08)
 number of electron      26.0000009 magnetization 
 augmentation part        5.8057317 magnetization 

 Broyden mixing:
  rms(total) = 0.17677E-04    rms(broyden)= 0.17677E-04
  rms(prec ) = 0.30134E-04
  weight for this iteration     100.00

 eigenvalues of (default mixing * dielectric matrix)
  average eigenvalue GAMMA=   1.6763
  3.1354  2.6016  2.4216  1.8633  1.2781  1.2781  1.1547  1.1547  0.9835  0.8920

 Free energy of the ion-electron system (eV)
  ---------------------------------------------------
  alpha Z        PSCENC =        48.70772351
  Ewald energy   TEWEN  =     -1457.49719496
  -Hartree energ DENC   =      -922.47147400
  -exchange      EXHF   =         0.00000000
  -V(xc)+E(xc)   XCENC  =        84.01862187
  PAW double counting   =      1655.22801169    -1687.37051720
  entropy T*S    EENTRO =        -0.00000000
  eigenvalues    EBANDS =      -179.35991400
  atomic energy  EATOM  =      2446.39170091
  Solvation  Ediel_sol  =         0.00000000
  ---------------------------------------------------
  free energy    TOTEN  =       -12.35304217 eV

  energy without entropy =      -12.35304217  energy(sigma->0) =      -12.35304217


--------------------------------------------------------------------------------------------------------




----------------------------------------- Iteration    1(  16)  ---------------------------------------


    POTLOK:  cpu time    0.0440: real time    0.0423
    SETDIJ:  cpu time    0.2080: real time    0.2105
     EDDAV:  cpu time    0.3160: real time    0.3190
       DOS:  cpu time    0.0000: real time    0.0002
    --------------------------------------------
      LOOP:  cpu time    0.5720: real time    0.5734

 eigenvalue-minimisations  :  1607
 total energy-change (2. order) :-0.1191893E-08  (-0.6263550E-09)
 number of electron      26.0000009 magnetization 
 augmentation part        5.8057317 magnetization 

 Free energy of the ion-electron system (eV)
  ---------------------------------------------------
  alpha Z        PSCENC =        48.70772351
  Ewald energy   TEWEN  =     -1457.49719496
  -Hartree energ DENC   =      -922.47124883
  -exchange      EXHF   =         0.00000000
  -V(xc)+E(xc)   XCENC  =        84.01861129
  PAW double counting   =      1655.23023921    -1687.37285146
  entropy T*S    EENTRO =        -0.00000000
  eigenvalues    EBANDS =      -179.36002185
  atomic energy  EATOM  =      2446.39170091
  Solvation  Ediel_sol  =         0.00000000
  ---------------------------------------------------
  free energy    TOTEN  =       -12.35304217 eV

  energy without entropy =      -12.35304217  energy(sigma->0) =      -12.35304217


--------------------------------------------------------------------------------------------------------




 average (electrostatic) potential at core
  the test charge radii are     1.0894  0.9698
  (the norm of the test charge is              1.0000)
       1-102.0342       2 -86.0720       3 -86.0719
 
 
 
 E-fermi :   4.4302     XC(G=0):  -9.4858     alpha+bet :-11.1089


 k-point     1 :       0.0000    0.0000    0.0000
  band No.  band energies     occupation 
      1     -16.6433      2.00000
      2     -16.6433      2.00000
      3     -16.5917      2.00000
      4     -16.5385      2.00000
      5     -16.5385      2.00000
      6     -10.1245      2.00000
      7      -7.5232      2.00000
      8      -0.5520      2.00000
      9       3.1743      2.00000
     10       3.1743      2.00000
     11       3.6270      2.00000
     12       3.6270      2.00000
     13       4.3366      2.00000
     14       6.5010      0.00000
     15       7.5836      0.00000
     16       9.4485      0.00000
     17       9.4485      0.00000

 k-point     2 :       0.1250   -0.0000    0.0000
  band No.  band energies     occupation 
      1     -16.6595      2.00000
      2     -16.6356      2.00000
      3     -16.5824      2.00000
      4     -16.5430      2.00000
      5     -16.5347      2.00000
      6      -9.9402      2.00000
      7      -7.3915      2.00000
      8      -0.6056      2.00000
      9       1.8614      2.00000
     10       2.5707      2.00000
     11       3.0846      2.00000
     12       3.9154      2.00000
     13       4.3649      2.00000
     14       7.2767      0.00000
     15       8.2972      0.00000
     16       9.4276      0.00000
     17       9.9059      0.00000

 k-point     3 :       0.2500   -0.0000    0.0000
  band No.  band energies     occupation 
      1     -16.7006      2.00000
      2     -16.6223      2.00000
      3     -16.5691      2.00000
      4     -16.5423      2.00000
      5     -16.5197      2.00000
      6      -9.4018      2.00000
      7      -7.0874      2.00000
      8      -1.2715      2.00000
      9       0.5454      2.00000
     10       1.7827      2.00000
     11       2.1250      2.00000
     12       4.0108      2.00000
     13       4.2461      2.00000
     14       6.9851      0.00000
     15       9.0667      0.00000
     16      10.8368      0.00000
     17      10.9843      0.00000

 k-point     4 :       0.3750    0.0000    0.0000
  band No.  band energies     occupation 
      1     -16.7424      2.00000
      2     -16.6160      2.00000
      3     -16.5757      2.00000
      4     -16.5211      2.00000
      5     -16.4972      2.00000
      6      -8.5944      2.00000
      7      -6.9268      2.00000
      8      -2.4833      2.00000
      9      -0.1346      2.00000
     10       1.2202      2.00000
     11       1.8721      2.00000
     12       3.9597      2.00000
     13       3.9600      2.00000
     14       6.2573      0.00000
     15       9.0649      0.00000
     16      11.0399      0.00000
     17      11.2750      0.00000

 k-point     5 :       0.5000   -0.0000    0.0000
  band No.  band energies     occupation 
      1     -16.7596      2.00000
      2     -16.6150      2.00000
      3     -16.5799      2.00000
      4     -16.5109      2.00000
      5     -16.4862      2.00000
      6      -7.9845      2.00000
      7      -7.1154      2.00000
      8      -2.9680      2.00000
      9      -0.4949      2.00000
     10       1.0195      2.00000
     11       2.0097      2.00000
     12       3.7392      2.00000
     13       3.9254      2.00000
     14       5.9780      0.00000
     15       8.9040      0.00000
     16      10.8412      0.00000
     17      11.3051      0.00000

 k-point     6 :       0.1250    0.1250    0.0000
  band No.  band energies     occupation 
      1     -16.6831      2.00000
      2     -16.6312      2.00000
      3     -16.5672      2.00000
      4     -16.5492      2.00000
      5     -16.5237      2.00000
      6      -9.5775      2.00000
      7      -7.1704      2.00000
      8      -0.9538      2.00000
      9       1.1297      2.00000
     10       1.1544      2.00000
     11       3.2198      2.00000
     12       3.3976      2.00000
     13       4.3472      2.00000
     14       7.5142      0.00000
     15       9.1369      0.00000
     16       9.8577      0.00000
     17      10.8326      0.00000

 k-point     7 :       0.2500    0.1250    0.0000
  band No.  band energies     occupation 
      1     -16.7171      2.00000
      2     -16.6289      2.00000
      3     -16.5634      2.00000
      4     -16.5399      2.00000
      5     -16.5042      2.00000
      6      -8.8913      2.00000
      7      -6.9147      2.00000
      8      -2.0431      2.00000
      9       0.1018      2.00000
     10       0.9512      2.00000
     11       2.2646      2.00000
     12       3.3337      2.00000
     13       4.2357      2.00000
     14       7.1220      0.00000
     15       9.8958      0.00000
     16      10.5121      0.00000
     17      11.5263      0.00000

 k-point     8 :       0.3750    0.1250    0.0000
  band No.  band energies     occupation 
      1     -16.7423      2.00000
      2     -16.6287      2.00000
      3     -16.5701      2.00000
      4     -16.5174      2.00000
      5     -16.4946      2.00000
      6      -8.0678      2.00000
      7      -6.9865      2.00000
      8      -2.9774      2.00000
      9      -0.3049      2.00000
     10       0.7035      2.00000
     11       1.8904      2.00000
     12       3.4141      2.00000
     13       3.8953      2.00000
     14       6.6820      0.00000
     15       9.8277      0.00000
     16      10.4565      0.00000
     17      11.6961      0.00000

 k-point     9 :       0.2500    0.2500    0.0000
  band No.  band energies     occupation 
      1     -16.7178      2.00000
      2     -16.6497      2.00000
      3     -16.5485      2.00000
      4     -16.5391      2.00000
      5     -16.4994      2.00000
      6      -8.1352      2.00000
      7      -6.8726      2.00000
      8      -2.9759      2.00000
      9      -0.2278      2.00000
     10       0.6396      2.00000
     11       1.6940      2.00000
     12       2.9726      2.00000
     13       4.0097      2.00000
     14       7.4325      0.00000
     15      10.8042      0.00000
     16      11.1507      0.00000
     17      11.3677      0.00000

 k-point    10 :       0.3750    0.2500    0.0000
  band No.  band energies     occupation 
      1     -16.7129      2.00000
      2     -16.6632      2.00000
      3     -16.5470      2.00000
      4     -16.5183      2.00000
      5     -16.5137      2.00000
      6      -7.5337      2.00000
      7      -7.0935      2.00000
      8      -3.4479      2.00000
      9       0.0523      2.00000
     10       0.2378      2.00000
     11       1.2069      2.00000
     12       3.2723      2.00000
     13       3.6618      2.00000
     14       7.3726      0.00000
     15      10.8556      0.00000
     16      11.5133      0.00000
     17      12.0473      0.00000

 k-point    11 :       0.0000    0.0000    0.1667
  band No.  band energies     occupation 
      1     -16.6434      2.00000
      2     -16.6433      2.00000
      3     -16.5917      2.00000
      4     -16.5386      2.00000
      5     -16.5386      2.00000
      6     -10.1104      2.00000
      7      -7.5634      2.00000
      8      -0.4003      2.00000
      9       3.1684      2.00000
     10       3.1684      2.00000
     11       3.6389      2.00000
     12       3.6389      2.00000
     13       3.9901      2.00000
     14       6.7122      0.00000
     15       7.5986      0.00000
     16       9.4147      0.00000
     17       9.4147      0.00000

 k-point    12 :       0.1250   -0.0000    0.1667
  band No.  band energies     occupation 
      1     -16.6595      2.00000
      2     -16.6356      2.00000
      3     -16.5823      2.00000
      4     -16.5430      2.00000
      5     -16.5347      2.00000
      6      -9.9263      2.00000
      7      -7.4300      2.00000
      8      -0.4763      2.00000
      9       1.8299      2.00000
     10       2.5657      2.00000
     11       3.1275      2.00000
     12       3.9299      2.00000
     13       4.1225      2.00000
     14       7.3424      0.00000
     15       8.3570      0.00000
     16       9.4565      0.00000
     17       9.8320      0.00000

 k-point    13 :       0.2500   -0.0000    0.1667
  band No.  band energies     occupation 
      1     -16.7006      2.00000
      2     -16.6223      2.00000
      3     -16.5691      2.00000
      4     -16.5423      2.00000
      5     -16.5197      2.00000
      6      -9.3888      2.00000
      7      -7.1192      2.00000
      8      -1.1990      2.00000
      9       0.4612      2.00000
     10       1.7875      2.00000
     11       2.2299      2.00000
     12       4.0033      2.00000
     13       4.1545      2.00000
     14       7.0691      0.00000
     15       9.0275      0.00000
     16      10.6518      0.00000
     17      10.7763      0.00000

 k-point    14 :       0.3750    0.0000    0.1667
  band No.  band energies     occupation 
      1     -16.7424      2.00000
      2     -16.6160      2.00000
      3     -16.5757      2.00000
      4     -16.5211      2.00000
      5     -16.4972      2.00000
      6      -8.5836      2.00000
      7      -6.9439      2.00000
      8      -2.4648      2.00000
      9      -0.2377      2.00000
     10       1.2298      2.00000
     11       1.9869      2.00000
     12       3.9344      2.00000
     13       4.0019      2.00000
     14       6.3353      0.00000
     15       9.0022      0.00000
     16      10.8391      0.00000
     17      11.3249      0.00000

 k-point    15 :       0.5000   -0.0000    0.1667
  band No.  band energies     occupation 
      1     -16.7597      2.00000
      2     -16.6150      2.00000
      3     -16.5799      2.00000
      4     -16.5109      2.00000
      5     -16.4862      2.00000
      6      -7.9756      2.00000
      7      -7.1193      2.00000
      8      -2.9907      2.00000
      9      -0.5512      2.00000
     10       1.0321      2.00000
     11       2.1225      2.00000
     12       3.7822      2.00000
     13       3.8885      2.00000
     14       5.9880      0.00000
     15       8.9147      0.00000
     16      10.9128      0.00000
     17      11.4344      0.00000

 k-point    16 :      -0.3750    0.0000    0.1667
  band No.  band energies     occupation 
      1     -16.7424      2.00000
      2     -16.6160      2.00000
      3     -16.5757      2.00000
      4     -16.5211      2.00000
      5     -16.4972      2.00000
      6      -8.5818      2.00000
      7      -6.9434      2.00000
      8      -2.5277      2.00000
      9      -0.0987      2.00000
     10       1.2355      2.00000
     11       2.0059      2.00000
     12       3.8562      2.00000
     13       3.9176      2.00000
     14       6.2041      0.00000
     15       9.1301      0.00000
     16      11.2634      0.00000
     17      11.4301      0.00000

 k-point    17 :      -0.2500    0.0000    0.1667
  band No.  band energies     occupation 
      1     -16.7006      2.00000
      2     -16.6223      2.00000
      3     -16.5691      2.00000
      4     -16.5423      2.00000
      5     -16.5197      2.00000
      6      -9.3879      2.00000
      7      -7.1192      2.00000
      8      -1.3014      2.00000
      9       0.7261      2.00000
     10       1.8011      2.00000
     11       2.1301      2.00000
     12       3.9687      2.00000
     13       4.0524      2.00000
     14       6.8810      0.00000
     15       9.1773      0.00000
     16      10.9498      0.00000
     17      11.5734      0.00000

 k-point    18 :      -0.1250    0.0000    0.1667
  band No.  band energies     occupation 
      1     -16.6595      2.00000
      2     -16.6356      2.00000
      3     -16.5823      2.00000
      4     -16.5430      2.00000
      5     -16.5347      2.00000
      6      -9.9262      2.00000
      7      -7.4300      2.00000
      8      -0.5000      2.00000
      9       1.9489      2.00000
     10       2.5909      2.00000
     11       3.0131      2.00000
     12       3.8835      2.00000
     13       4.1409      2.00000
     14       7.3131      0.00000
     15       8.3012      0.00000
     16       9.5726      0.00000
     17       9.9362      0.00000

 k-point    19 :       0.1250    0.1250    0.1667
  band No.  band energies     occupation 
      1     -16.6831      2.00000
      2     -16.6312      2.00000
      3     -16.5671      2.00000
      4     -16.5492      2.00000
      5     -16.5237      2.00000
      6      -9.5639      2.00000
      7      -7.2048      2.00000
      8      -0.9066      2.00000
      9       1.0681      2.00000
     10       1.3040      2.00000
     11       3.1900      2.00000
     12       3.3833      2.00000
     13       4.2145      2.00000
     14       7.4907      0.00000
     15       9.1348      0.00000
     16       9.9820      0.00000
     17      10.8328      0.00000

 k-point    20 :       0.2500    0.1250    0.1667
  band No.  band energies     occupation 
      1     -16.7172      2.00000
      2     -16.6289      2.00000
      3     -16.5634      2.00000
      4     -16.5399      2.00000
      5     -16.5042      2.00000
      6      -8.8792      2.00000
      7      -6.9387      2.00000
      8      -2.0157      2.00000
      9      -0.0037      2.00000
     10       1.0676      2.00000
     11       2.2247      2.00000
     12       3.4068      2.00000
     13       4.2063      2.00000
     14       7.2001      0.00000
     15       9.7378      0.00000
     16      10.5287      0.00000
     17      11.1769      0.00000

 k-point    21 :       0.3750    0.1250    0.1667
  band No.  band energies     occupation 
      1     -16.7423      2.00000
      2     -16.6288      2.00000
      3     -16.5701      2.00000
      4     -16.5173      2.00000
      5     -16.4946      2.00000
      6      -8.0587      2.00000
      7      -6.9940      2.00000
      8      -2.9760      2.00000
      9      -0.3927      2.00000
     10       0.7125      2.00000
     11       1.9187      2.00000
     12       3.4862      2.00000
     13       3.9612      2.00000
     14       6.7305      0.00000
     15       9.7625      0.00000
     16      10.6110      0.00000
     17      11.4593      0.00000

 k-point    22 :       0.5000    0.1250    0.1667
  band No.  band energies     occupation 
      1     -16.7423      2.00000
      2     -16.6288      2.00000
      3     -16.5701      2.00000
      4     -16.5173      2.00000
      5     -16.4946      2.00000
      6      -8.0576      2.00000
      7      -6.9939      2.00000
      8      -2.9990      2.00000
      9      -0.3195      2.00000
     10       0.6522      2.00000
     11       2.0032      2.00000
     12       3.3721      2.00000
     13       3.9795      2.00000
     14       6.6706      0.00000
     15       9.8323      0.00000
     16      10.6915      0.00000
     17      11.5702      0.00000

 k-point    23 :      -0.3750    0.1250    0.1667
  band No.  band energies     occupation 
      1     -16.7172      2.00000
      2     -16.6289      2.00000
      3     -16.5634      2.00000
      4     -16.5399      2.00000
      5     -16.5042      2.00000
      6      -8.8783      2.00000
      7      -6.9384      2.00000
      8      -2.0663      2.00000
      9       0.1550      2.00000
     10       0.9607      2.00000
     11       2.3612      2.00000
     12       3.2351      2.00000
     13       4.2089      2.00000
     14       7.0653      0.00000
     15       9.9605      0.00000
     16      10.5838      0.00000
     17      11.6326      0.00000

 k-point    24 :       0.2500    0.2500    0.1667
  band No.  band energies     occupation 
      1     -16.7178      2.00000
      2     -16.6497      2.00000
      3     -16.5485      2.00000
      4     -16.5391      2.00000
      5     -16.4994      2.00000
      6      -8.1250      2.00000
      7      -6.8837      2.00000
      8      -2.9718      2.00000
      9      -0.2820      2.00000
[...]
      6      -7.4702      2.00000
      7      -6.8014      2.00000
      8      -2.4758      2.00000
      9      -0.1846      2.00000
     10       1.3877      2.00000
     11       1.9944      2.00000
     12       3.5181      2.00000
     13       3.9545      2.00000
     14       6.4593      0.00000
     15       9.3540      0.00000
     16      10.3599      0.00000
     17      10.7028      0.00000

 k-point    37 :       0.5000    0.1250    0.3333
  band No.  band energies     occupation 
      1     -16.5835      2.00000
      2     -16.4947      2.00000
      3     -16.4781      2.00000
      4     -16.4248      2.00000
      5     -16.4141      2.00000
      6      -7.4703      2.00000
      7      -6.7975      2.00000
      8      -2.5305      2.00000
      9      -0.0526      2.00000
     10       1.2691      2.00000
     11       2.1798      2.00000
     12       3.3558      2.00000
     13       3.9409      2.00000
     14       6.3047      0.00000
     15       9.6207      0.00000
     16      10.3123      0.00000
     17      10.8255      0.00000

 k-point    38 :      -0.3750    0.1250    0.3333
  band No.  band energies     occupation 
      1     -16.5654      2.00000
      2     -16.4954      2.00000
      3     -16.4711      2.00000
      4     -16.4441      2.00000
      5     -16.4214      2.00000
      6      -8.1595      2.00000
      7      -6.9159      2.00000
      8      -1.7580      2.00000
      9       0.6898      2.00000
     10       1.4902      2.00000
     11       2.6479      2.00000
     12       3.0862      2.00000
     13       3.9899      2.00000
     14       6.6845      0.00000
     15       9.9176      0.00000
     16      10.1596      0.00000
     17      11.1383      0.00000

 k-point    39 :       0.2500    0.2500    0.3333
  band No.  band energies     occupation 
      1     -16.5641      2.00000
      2     -16.5107      2.00000
      3     -16.4637      2.00000
      4     -16.4432      2.00000
      5     -16.4143      2.00000
      6      -7.5229      2.00000
      7      -6.7467      2.00000
      8      -2.3725      2.00000
      9       0.1627      2.00000
     10       0.8919      2.00000
     11       1.7263      2.00000
     12       3.2613      2.00000
     13       4.0192      2.00000
     14       7.0425      0.00000
     15       9.5753      0.00000
     16      10.5270      0.00000
     17      11.2721      0.00000

 k-point    40 :       0.3750    0.2500    0.3333
  band No.  band energies     occupation 
      1     -16.5597      2.00000
      2     -16.5210      2.00000
      3     -16.4602      2.00000
      4     -16.4342      2.00000
      5     -16.4204      2.00000
      6      -7.0731      2.00000
      7      -6.8061      2.00000
      8      -2.7176      2.00000
      9       0.1851      2.00000
     10       0.5439      2.00000
     11       1.2623      2.00000
     12       3.5468      2.00000
     13       3.8666      2.00000
     14       6.9868      0.00000
     15       9.8502      0.00000
     16      10.1675      0.00000
     17      11.3916      0.00000

 k-point    41 :       0.0000    0.0000    0.5000
  band No.  band energies     occupation 
      1     -16.5176      2.00000
      2     -16.5176      2.00000
      3     -16.4746      2.00000
      4     -16.4467      2.00000
      5     -16.4467      2.00000
      6      -9.2552      2.00000
      7      -7.6775      2.00000
      8      -0.3033      2.00000
      9       2.5004      2.00000
     10       3.6763      2.00000
     11       3.6763      2.00000
     12       4.1564      2.00000
     13       4.1564      2.00000
     14       7.3646      0.00000
     15       7.9764      0.00000
     16       9.5143      0.00000
     17       9.5143      0.00000

 k-point    42 :       0.1250   -0.0000    0.5000
  band No.  band energies     occupation 
      1     -16.5274      2.00000
      2     -16.5084      2.00000
      3     -16.4675      2.00000
      4     -16.4528      2.00000
      5     -16.4459      2.00000
      6      -9.0810      2.00000
      7      -7.5433      2.00000
      8      -0.4543      2.00000
      9       2.4611      2.00000
     10       2.9015      2.00000
     11       3.2969      2.00000
     12       3.5326      2.00000
     13       4.1610      2.00000
     14       7.3487      0.00000
     15       8.7609      0.00000
     16       9.9368      0.00000
     17       9.9438      0.00000

 k-point    43 :       0.2500   -0.0000    0.5000
  band No.  band energies     occupation 
      1     -16.5550      2.00000
      2     -16.4917      2.00000
      3     -16.4697      2.00000
      4     -16.4445      2.00000
      5     -16.4384      2.00000
      6      -8.5820      2.00000
      7      -7.2065      2.00000
      8      -1.1021      2.00000
      9       1.1332      2.00000
     10       2.6552      2.00000
     11       2.7278      2.00000
     12       3.0733      2.00000
     13       4.0214      2.00000
     14       6.6939      0.00000
     15       9.4020      0.00000
     16      10.5310      0.00000
     17      10.7167      0.00000

 k-point    44 :       0.3750    0.0000    0.5000
  band No.  band energies     occupation 
      1     -16.5848      2.00000
      2     -16.4849      2.00000
      3     -16.4815      2.00000
      4     -16.4242      2.00000
      5     -16.4207      2.00000
      6      -7.8716      2.00000
      7      -6.8964      2.00000
      8      -2.1339      2.00000
      9       0.0131      2.00000
     10       2.1604      2.00000
     11       2.4857      2.00000
     12       3.4633      2.00000
     13       3.8520      2.00000
     14       6.0272      0.00000
     15       9.1189      0.00000
     16      10.1504      0.00000
     17      10.9339      0.00000

 k-point    45 :       0.5000   -0.0000    0.5000
  band No.  band energies     occupation 
      1     -16.5973      2.00000
      2     -16.4861      2.00000
      3     -16.4843      2.00000
      4     -16.4156      2.00000
      5     -16.4111      2.00000
      6      -7.3841      2.00000
      7      -6.8806      2.00000
      8      -2.6441      2.00000
      9      -0.4305      2.00000
     10       1.9799      2.00000
     11       2.4859      2.00000
     12       3.6540      2.00000
     13       3.7819      2.00000
     14       5.7668      0.00000
     15       8.9552      0.00000
     16       9.8383      0.00000
     17      10.5992      0.00000

 k-point    46 :       0.1250    0.1250    0.5000
  band No.  band energies     occupation 
      1     -16.5422      2.00000
      2     -16.5008      2.00000
      3     -16.4611      2.00000
      4     -16.4570      2.00000
      5     -16.4392      2.00000
      6      -8.7432      2.00000
      7      -7.3061      2.00000
      8      -0.8464      2.00000
      9       1.7223      2.00000
     10       2.1977      2.00000
     11       2.8847      2.00000
     12       3.5081      2.00000
     13       3.7793      2.00000
     14       7.2090      0.00000
     15       9.3665      0.00000
     16      10.4682      0.00000
     17      10.5472      0.00000

 k-point    47 :       0.2500    0.1250    0.5000
  band No.  band energies     occupation 
      1     -16.5655      2.00000
      2     -16.4954      2.00000
      3     -16.4711      2.00000
      4     -16.4441      2.00000
      5     -16.4214      2.00000
      6      -8.1265      2.00000
      7      -6.9684      2.00000
      8      -1.7006      2.00000
      9       0.5155      2.00000
     10       1.6799      2.00000
     11       2.4571      2.00000
     12       3.5293      2.00000
     13       3.6899      2.00000
     14       6.8248      0.00000
     15       9.6133      0.00000
     16      10.4900      0.00000
     17      10.7506      0.00000

 k-point    48 :       0.3750    0.1250    0.5000
  band No.  band energies     occupation 
      1     -16.5836      2.00000
      2     -16.4947      2.00000
      3     -16.4781      2.00000
      4     -16.4248      2.00000
      5     -16.4141      2.00000
      6      -7.4460      2.00000
      7      -6.8221      2.00000
      8      -2.5189      2.00000
      9      -0.1951      2.00000
     10       1.3337      2.00000
     11       2.1169      2.00000
     12       3.7067      2.00000
     13       3.8502      2.00000
     14       6.4081      0.00000
     15       9.3904      0.00000
     16      10.2695      0.00000
     17      10.5184      0.00000

 k-point    49 :       0.2500    0.2500    0.5000
  band No.  band energies     occupation 
      1     -16.5641      2.00000
      2     -16.5107      2.00000
      3     -16.4637      2.00000
      4     -16.4432      2.00000
      5     -16.4143      2.00000
      6      -7.4970      2.00000
      7      -6.7749      2.00000
      8      -2.3681      2.00000
      9       0.1250      2.00000
     10       0.8240      2.00000
     11       1.6561      2.00000
     12       3.6495      2.00000
     13       3.9321      2.00000
     14       7.1426      0.00000
     15       9.4994      0.00000
     16      10.2381      0.00000
     17      11.1275      0.00000

 k-point    50 :       0.3750    0.2500    0.5000
  band No.  band energies     occupation 
      1     -16.5597      2.00000
      2     -16.5211      2.00000
      3     -16.4602      2.00000
      4     -16.4342      2.00000
      5     -16.4204      2.00000
      6      -7.0598      2.00000
      7      -6.8126      2.00000
      8      -2.7089      2.00000
      9       0.0997      2.00000
     10       0.4749      2.00000
     11       1.1867      2.00000
     12       3.8413      2.00000
     13       3.9957      2.00000
     14       7.1624      0.00000
     15       9.6780      0.00000
     16       9.7561      0.00000
     17      11.2615      0.00000


--------------------------------------------------------------------------------------------------------


 soft charge-density along one line, spin component           1
         0         1         2         3         4         5         6         7         8         9
 total charge-density along one line
 
 pseudopotential strength for first ion, spin component:           1
-17.877   0.000   0.000  -0.012   0.000  12.417  -0.000  -0.000
  0.000 -17.866  -0.000  -0.000  -0.012  -0.000  12.407   0.000
  0.000  -0.000 -17.881   0.000  -0.000  -0.000   0.000  12.420
 -0.012  -0.000   0.000 -17.866   0.000   0.010   0.000  -0.000
  0.000  -0.012  -0.000   0.000 -17.877  -0.000   0.010  -0.000
 12.417  -0.000  -0.000   0.010  -0.000  -6.063   0.000   0.000
 -0.000  12.407   0.000   0.000   0.010   0.000  -6.056  -0.000
 -0.000   0.000  12.420  -0.000  -0.000   0.000  -0.000  -6.066
  0.010   0.000  -0.000  12.407  -0.000  -0.008  -0.000   0.000
 -0.000   0.010  -0.000  -0.000  12.417   0.000  -0.008   0.000
 -0.000  -0.000  -0.001   0.000   0.000   0.000   0.000  -0.001
  0.000   0.000  -0.000  -0.000  -0.000  -0.000  -0.000  -0.000
  0.000  -0.000  -0.000   0.000  -0.000  -0.000   0.000   0.000
  0.000   0.000  -0.000   0.000   0.000  -0.000   0.000   0.000
  0.000   0.000  -0.000  -0.000   0.000   0.000  -0.000   0.000
 -0.000   0.000   0.000   0.000   0.000   0.000  -0.000  -0.000
  0.000  -0.000   0.000  -0.000   0.000  -0.000   0.000  -0.000
 -0.000   0.000   0.000   0.000  -0.000   0.000  -0.000  -0.000
 total augmentation occupancy for first ion, spin component:           1
  2.060   0.000   0.000  -0.042   0.000   0.086  -0.000   0.000  -0.067   0.000   0.000   0.000   0.000   0.000   0.000   0.000
  0.000   2.086  -0.000  -0.000  -0.042  -0.000   0.132  -0.000  -0.000  -0.067   0.000   0.000   0.000   0.000   0.000   0.000
  0.000  -0.000   2.028  -0.000   0.000   0.000  -0.000   0.038  -0.000   0.000  -0.007  -0.002   0.000   0.000   0.000   0.000
 -0.042  -0.000  -0.000   2.086   0.000  -0.067  -0.000  -0.000   0.132   0.000  -0.000   0.000   0.000   0.000   0.000   0.000
  0.000  -0.042   0.000   0.000   2.060   0.000  -0.067   0.000   0.000   0.086  -0.000  -0.000   0.000   0.000   0.000   0.000
  0.086  -0.000   0.000  -0.067   0.000   0.125  -0.000   0.000  -0.110   0.000  -0.000  -0.000   0.000   0.000   0.000   0.000
 -0.000   0.132  -0.000  -0.000  -0.067  -0.000   0.202  -0.000  -0.000  -0.110  -0.000   0.000   0.000   0.000   0.000   0.000
  0.000  -0.000   0.038  -0.000   0.000   0.000  -0.000   0.051  -0.000   0.000  -0.011  -0.001   0.000   0.000   0.000   0.000
 -0.067   0.000  -0.000   0.132   0.000  -0.110  -0.000  -0.000   0.202   0.000   0.000   0.000   0.000   0.000   0.000   0.000
 -0.000  -0.067   0.000   0.000   0.086   0.000  -0.110   0.000   0.000   0.125  -0.000  -0.000   0.000   0.000   0.000   0.000
  0.000   0.000  -0.007  -0.000  -0.000  -0.000  -0.000  -0.011   0.000  -0.000   1.435   0.073   0.000   0.000   0.000   0.000
  0.000   0.000  -0.002   0.000  -0.000  -0.000   0.000  -0.001   0.000  -0.000   0.073   0.013   0.000   0.000   0.000   0.000
  0.000   0.000   0.000   0.000   0.000   0.000   0.000   0.000   0.000   0.000   0.000   0.000   0.801  -0.000  -0.000  -0.493
  0.000   0.000   0.000   0.000   0.000   0.000   0.000   0.000   0.000   0.000   0.000   0.000  -0.000   0.785  -0.000   0.000
  0.000   0.000   0.000   0.000   0.000   0.000   0.000   0.000   0.000   0.000   0.000   0.000   0.000  -0.000   0.801   0.000
  0.000   0.000   0.000   0.000   0.000   0.000   0.000   0.000   0.000   0.000   0.000   0.000  -0.493   0.000   0.000   0.398
  0.000   0.000   0.000   0.000   0.000   0.000   0.000   0.000   0.000   0.000   0.000   0.000   0.000  -0.471   0.000   0.000
  0.000   0.000   0.000   0.000   0.000   0.000   0.000   0.000   0.000   0.000   0.000   0.000   0.000   0.000  -0.493   0.000


------------------------ aborting loop because EDIFF is reached ----------------------------------------


    CHARGE:  cpu time    0.0360: real time    0.0361
    FORLOC:  cpu time    0.0000: real time    0.0029
    FORNL :  cpu time    0.0520: real time    0.0481
    STRESS:  cpu time    0.1920: real time    0.1921
    FORCOR:  cpu time    0.0480: real time    0.0448
    FORHAR:  cpu time    0.0080: real time    0.0118
    MIXING:  cpu time    0.0040: real time    0.0014
    OFIELD:  cpu time    0.0000: real time    0.0000

 ---------------------------------------------------------------------------------------------

         DFTD3 V3.0 Rev 1        
 Edisp (eV)   -0.46101

 E6    (eV) :    -0.2025
 E8    (eV) :    -0.2585
 % E8        : 56.06
    FORVDW:  cpu time    0.0440: real time    0.0428

  FORCE on cell =-STRESS in cart. coord.  units (eV):
  Direction    XX          YY          ZZ          XY          YZ          ZX
  --------------------------------------------------------------------------------------
  Alpha Z    48.70772    48.70772    48.70772
  Ewald    -260.21905  -260.21876 -1037.93387     0.00028     0.00008    -0.00020
  Hartree   478.38345   478.38342  -128.91083    -0.00003    -0.00002     0.00002
  E(xc)    -111.58463  -111.58464  -111.68034    -0.00000    -0.00000     0.00000
  Local    -762.77521  -762.77544   616.20395    -0.00018    -0.00003     0.00013
  n-local   207.06398   210.56943   208.29329    -3.62636    -0.82951    -2.15233
  augment   146.91170   146.91171   146.67076    -0.00001    -0.00001     0.00001
  Kinetic   247.89677   255.60505   258.64208    -6.63739    -0.03069    -2.09550
  Fock        0.00000     0.00000     0.00000     0.00000     0.00000     0.00000
  vdW        -0.48200    -0.48200    -0.49838    -0.00000    -0.00000     0.00000
  -------------------------------------------------------------------------------------
  Total      -0.49039    -0.49039    -0.50563     0.00000    -0.00000    -0.00000
  in kB     -11.31517   -11.31517   -11.66682     0.00000    -0.00000    -0.00000
  external pressure =      -11.43 kB  Pullay stress =        0.00 kB


 VOLUME and BASIS-vectors are now :
 -----------------------------------------------------------------------------
  energy-cutoff  :      550.00
  volume of cell :       69.44
      direct lattice vectors                 reciprocal lattice vectors
     3.651000000  0.000000000  0.000000000     0.273897562  0.158134819  0.000000000
    -1.825500000  3.161859000  0.000000000     0.000000000  0.316269638  0.000000000
     0.000000000  0.000000000  6.015000000     0.000000000  0.000000000  0.166251039

  length of vectors
     3.651000000  3.651000217  6.015000000     0.316269656  0.316269638  0.166251039


 FORCES acting on ions
    electron-ion (+dipol)            ewald-force                    non-local-force                 convergence-correction
 -----------------------------------------------------------------------------------------------
   -.190E-04 -.329E-04 0.411E-04   -.139E-03 -.241E-03 0.280E-03   0.000E+00 0.000E+00 0.000E+00   -.181E-08 -.314E-08 -.419E-06
   -.992E-06 0.111E-02 -.250E+03   -.754E-05 0.153E-03 0.253E+03   0.111E-15 -.555E-16 -.373E+01   -.740E-10 0.911E-10 -.325E-03
   0.950E-03 0.538E-03 0.250E+03   0.147E-03 0.882E-04 -.253E+03   0.000E+00 0.555E-16 0.373E+01   0.115E-09 -.210E-10 0.325E-03
 -----------------------------------------------------------------------------------------------
   0.930E-03 0.161E-02 -.216E-02   -.140E-14 -.152E-14 0.000E+00   0.111E-15 0.000E+00 0.000E+00   -.177E-08 -.307E-08 -.424E-06
 
 
 POSITION                                       TOTAL-FORCE (eV/Angst)
 -----------------------------------------------------------------------------------
     -0.00000      0.00000      0.00000         0.000000      0.000000      0.000000
      0.00000      2.10790      1.47488         0.000000      0.000000      0.001688
      1.82550      1.05395      4.54012        -0.000000      0.000000     -0.001688
 -----------------------------------------------------------------------------------
    total drift:                                0.000930      0.001611     -0.002157


--------------------------------------------------------------------------------------------------------



  FREE ENERGIE OF THE ION-ELECTRON SYSTEM (eV)
  ---------------------------------------------------
  free  energy   TOTEN  =       -13.20336864 eV

  energy  without entropy=      -13.20336864  energy(sigma->0) =      -13.20336864
 
 d Force = 0.1723217E-03[ 0.127E-04, 0.332E-03]  d Energy = 0.1691843E-03 0.314E-05
 d Force = 0.1910754E+01[ 0.191E+01, 0.191E+01]  d Ewald  = 0.1910756E+01-0.217E-05


--------------------------------------------------------------------------------------------------------


    POTLOK:  cpu time    0.2560: real time    0.2564


--------------------------------------------------------------------------------------------------------




--------------------------------------------------------------------------------------------------------


  
 reached required accuracy - stopping structural energy minimisation
     LOOP+:  cpu time    6.1160: real time    6.1267
    4ORBIT:  cpu time    0.0000: real time    0.0136

 total amount of memory used by VASP on root node    41349. kBytes
========================================================================

   base      :      30000. kBytes
   nonl-proj :       3756. kBytes
   fftplans  :       1443. kBytes
   grid      :       2355. kBytes
   one-center:         15. kBytes
   wavefun   :       3780. kBytes
 
  
  
 General timing and accounting informations for this job:
 ========================================================
  
                  Total CPU time used (sec):       35.332
                            User time (sec):       35.036
                          System time (sec):        0.296
                         Elapsed time (sec):       35.527
  
                   Maximum memory used (kb):       71020.
                   Average memory used (kb):           0.
  
                          Minor page faults:        10497
                          Major page faults:            0
                 Voluntary context switches:           45
